REMARK SMILES O=C(/C=C/c1ccc(Cl)cc1)OCc1ccc([N+](=O)[O-])cc1
REMARK SMILES IDX 12 1 2 2 1 3 3 4 4 5 5 6 8 7 7 8 10 9 6 10 11 11 9 12 13 13
REMARK SMILES IDX 14 14 15 15 22 16 16 17 21 18 17 19 18 20 19 21 20 22
REMARK H PARENT
ROOT
ATOM      1  O   UNL     1       0.596  -1.801   0.294  1.00  0.00    -0.458 OA
ENDROOT
BRANCH   1   2
ATOM      2  C   UNL     1      -0.129  -1.071   1.175  1.00  0.00     0.331 C 
ATOM      3  O   UNL     1       0.195  -0.755   2.307  1.00  0.00    -0.247 OA
BRANCH   2   4
ATOM      4  C   UNL     1      -1.405  -0.712   0.523  1.00  0.00     0.094 C 
ATOM      5  C   UNL     1      -2.317   0.010   1.191  1.00  0.00     0.015 C 
BRANCH   5   6
ATOM      6  C   UNL     1      -3.606   0.432   0.627  1.00  0.00    -0.025 A 
ATOM      7  C   UNL     1      -6.090   1.288  -0.354  1.00  0.00     0.041 A 
ATOM      8  C   UNL     1      -5.590   0.043  -0.725  1.00  0.00     0.021 A 
ATOM      9  C   UNL     1      -5.367   2.106   0.510  1.00  0.00     0.021 A 
ATOM     10  C   UNL     1      -4.354  -0.387  -0.232  1.00  0.00     0.009 A 
ATOM     11  C   UNL     1      -4.131   1.676   1.003  1.00  0.00     0.009 A 
ATOM     12  Cl  UNL     1      -7.611   1.815  -0.961  1.00  0.00    -0.084 Cl
ENDBRANCH   5   6
ENDBRANCH   2   4
ENDBRANCH   1   2
BRANCH   1  13
ATOM     13  C   UNL     1       1.884  -2.218   0.759  1.00  0.00     0.269 C 
BRANCH  13  14
ATOM     14  C   UNL     1       2.931  -1.241   0.285  1.00  0.00    -0.010 A 
ATOM     15  C   UNL     1       3.381  -0.218   1.133  1.00  0.00     0.014 A 
ATOM     16  C   UNL     1       3.433  -1.318  -1.023  1.00  0.00     0.014 A 
ATOM     17  C   UNL     1       4.332   0.705   0.692  1.00  0.00     0.086 A 
ATOM     18  C   UNL     1       4.386  -0.401  -1.474  1.00  0.00     0.086 A 
ATOM     19  C   UNL     1       4.834   0.608  -0.612  1.00  0.00     0.269 A 
BRANCH  19  20
ATOM     20  N   UNL     1       5.833   1.575  -1.081  1.00  0.00     0.062 N 
ATOM     21  O   UNL     1       6.245   1.460  -2.245  1.00  0.00    -0.258 OA
ATOM     22  O   UNL     1       6.207   2.450  -0.288  1.00  0.00    -0.258 OA
ENDBRANCH  19  20
ENDBRANCH  13  14
ENDBRANCH   1  13
TORSDOF 6
