REMARK SMILES Cc1nc(N)ccc1CNC(=O)Cn1c(C)cc2c(c1=O)NC(=O)[C@H](Cc1ccccc1)C2
REMARK SMILES IDX 10 1 11 2 12 3 9 5 8 6 2 7 3 8 4 9 7 10 6 11 1 12 5 13 13 16
REMARK SMILES IDX 14 17 15 18 20 19 17 20 19 21 21 22 18 23 22 24 33 25 23 26
REMARK SMILES IDX 25 27 24 28 16 29 26 31 27 32 28 33 32 34 29 35 31 36 30 37
REMARK H PARENT 10 4 5 14 5 15 22 30
ROOT
ATOM      1  N   UNL     1      -3.079   1.917  -0.838  1.00  0.00    -0.350 N 
ATOM      2  C   UNL     1      -2.105   2.856  -1.108  1.00  0.00     0.240 C 
ATOM      3  O   UNL     1      -2.044   3.477  -2.166  1.00  0.00    -0.273 OA
ATOM      4  H   UNL     1      -2.877   1.254  -0.088  1.00  0.00     0.163 HD
ENDROOT
BRANCH   1   5
ATOM      5  C   UNL     1      -3.999   1.506  -1.870  1.00  0.00     0.153 C 
BRANCH   5   6
ATOM      6  C   UNL     1      -5.046   0.576  -1.328  1.00  0.00    -0.007 A 
ATOM      7  C   UNL     1      -4.884  -0.812  -1.289  1.00  0.00     0.045 A 
ATOM      8  N   UNL     1      -5.830  -1.646  -0.785  1.00  0.00    -0.236 NA
ATOM      9  C   UNL     1      -6.959  -1.123  -0.288  1.00  0.00     0.123 A 
ATOM     10  C   UNL     1      -6.226   1.099  -0.790  1.00  0.00     0.011 A 
ATOM     11  C   UNL     1      -7.192   0.244  -0.268  1.00  0.00     0.047 A 
ATOM     12  C   UNL     1      -3.645  -1.485  -1.808  1.00  0.00     0.067 C 
BRANCH   9  13
ATOM     13  N   UNL     1      -7.912  -2.005   0.231  1.00  0.00    -0.384 N 
ATOM     14  H   UNL     1      -8.065  -1.798   1.212  1.00  0.00     0.158 HD
ATOM     15  H   UNL     1      -8.790  -1.886  -0.263  1.00  0.00     0.158 HD
ENDBRANCH   9  13
ENDBRANCH   5   6
ENDBRANCH   1   5
BRANCH   2  16
ATOM     16  C   UNL     1      -1.067   3.015   0.003  1.00  0.00     0.225 C 
BRANCH  16  17
ATOM     17  N   UNL     1      -0.022   1.996  -0.127  1.00  0.00    -0.302 N 
ATOM     18  C   UNL     1       1.175   2.244  -0.809  1.00  0.00     0.019 C 
ATOM     19  C   UNL     1      -0.322   0.740   0.414  1.00  0.00     0.275 C 
ATOM     20  C   UNL     1       2.095   1.268  -0.922  1.00  0.00     0.027 C 
ATOM     21  C   UNL     1       0.746  -0.306   0.311  1.00  0.00     0.110 C 
ATOM     22  O   UNL     1      -1.402   0.460   0.937  1.00  0.00    -0.267 OA
ATOM     23  C   UNL     1       1.882  -0.036  -0.344  1.00  0.00    -0.016 C 
ATOM     24  N   UNL     1       0.509  -1.547   0.844  1.00  0.00    -0.321 N 
ATOM     25  C   UNL     1       2.919  -1.109  -0.527  1.00  0.00     0.051 C 
ATOM     26  C   UNL     1       1.433  -2.557   0.902  1.00  0.00     0.228 C 
ATOM     27  C   UNL     1       2.872  -2.171   0.586  1.00  0.00     0.087 C 
ATOM     28  O   UNL     1       1.126  -3.681   1.292  1.00  0.00    -0.274 OA
ATOM     29  C   UNL     1       1.428   3.594  -1.426  1.00  0.00     0.064 C 
ATOM     30  H   UNL     1      -0.425  -1.748   1.191  1.00  0.00     0.170 HD
BRANCH  27  31
ATOM     31  C   UNL     1       3.522  -1.705   1.903  1.00  0.00     0.049 C 
BRANCH  31  32
ATOM     32  C   UNL     1       5.011  -1.477   1.797  1.00  0.00    -0.047 A 
ATOM     33  C   UNL     1       5.886  -2.560   1.641  1.00  0.00     0.004 A 
ATOM     34  C   UNL     1       5.538  -0.179   1.850  1.00  0.00     0.004 A 
ATOM     35  C   UNL     1       7.261  -2.349   1.532  1.00  0.00     0.000 A 
ATOM     36  C   UNL     1       6.913   0.030   1.741  1.00  0.00     0.000 A 
ATOM     37  C   UNL     1       7.774  -1.054   1.581  1.00  0.00     0.000 A 
ENDBRANCH  31  32
ENDBRANCH  27  31
ENDBRANCH  16  17
ENDBRANCH   2  16
TORSDOF 7
