REMARK SMILES COc1ccc(-n2c(=O)n3n(c2=O)C(C(=O)NC(CCCCN)C(=O)C(=O)NCCc2ccc(C(N)=O)cc2)C=CC3CC(C)C)cc1
REMARK SMILES IDX 24 1 25 2 18 3 17 4 15 5 16 6 14 8 7 9 8 10 12 11 9 12 10 13
REMARK SMILES IDX 11 14 13 15 42 16 41 17 40 18 6 19 3 20 4 21 48 22 5 23
REMARK SMILES IDX 47 24 2 25 1 26 43 27 44 28 45 29 46 30 19 31 20 32 21 33
REMARK SMILES IDX 22 34 23 35 26 38 27 39 28 40 29 42 30 43 31 44 32 45 39 46
REMARK SMILES IDX 33 47 38 48 34 49 35 50 36 51 37 52
REMARK H PARENT 17 7 23 36 23 37 28 41 36 53 36 54
ROOT
ATOM      1  C   UNL     1       3.225  -1.978  -1.014  1.00  0.00     0.242 C 
ATOM      2  O   UNL     1       2.733  -2.324  -2.089  1.00  0.00    -0.286 OA
ENDROOT
BRANCH   1   3
ATOM      3  C   UNL     1       2.468  -1.943   0.306  1.00  0.00     0.159 C 
BRANCH   3   4
ATOM      4  N   UNL     1       1.035  -1.924   0.011  1.00  0.00    -0.344 N 
ATOM      5  C   UNL     1       0.112  -1.431   0.913  1.00  0.00     0.249 C 
ATOM      6  O   UNL     1       0.441  -1.004   2.019  1.00  0.00    -0.272 OA
ATOM      7  H   UNL     1       0.758  -2.111  -0.949  1.00  0.00     0.164 HD
BRANCH   5   8
ATOM      8  C   UNL     1      -1.358  -1.504   0.425  1.00  0.00     0.222 C 
ATOM      9  N   UNL     1      -2.638   1.792  -0.190  1.00  0.00    -0.211 N 
ATOM     10  C   UNL     1      -3.732   1.186   0.428  1.00  0.00     0.352 C 
ATOM     11  C   UNL     1      -1.574   0.896  -0.171  1.00  0.00     0.352 C 
ATOM     12  O   UNL     1      -4.811   1.682   0.723  1.00  0.00    -0.245 OA
ATOM     13  N   UNL     1      -3.363  -0.140   0.731  1.00  0.00    -0.223 N 
ATOM     14  N   UNL     1      -1.962  -0.200   0.618  1.00  0.00    -0.214 N 
ATOM     15  O   UNL     1      -0.515   0.937  -0.784  1.00  0.00    -0.245 OA
ATOM     16  C   UNL     1      -4.002  -0.968   1.761  1.00  0.00     0.134 C 
ATOM     17  C   UNL     1      -3.227  -2.263   1.913  1.00  0.00    -0.002 C 
ATOM     18  C   UNL     1      -2.066  -2.519   1.285  1.00  0.00     0.008 C 
BRANCH   9  19
ATOM     19  C   UNL     1      -2.617   3.094  -0.767  1.00  0.00     0.056 A 
ATOM     20  C   UNL     1      -2.576   5.702  -1.910  1.00  0.00     0.119 A 
ATOM     21  C   UNL     1      -1.397   4.990  -1.714  1.00  0.00     0.048 A 
ATOM     22  C   UNL     1      -3.779   5.115  -1.535  1.00  0.00     0.048 A 
ATOM     23  C   UNL     1      -1.415   3.705  -1.152  1.00  0.00     0.031 A 
ATOM     24  C   UNL     1      -3.795   3.829  -0.970  1.00  0.00     0.031 A 
BRANCH  20  25
ATOM     25  O   UNL     1      -2.420   6.940  -2.467  1.00  0.00    -0.497 OA
ATOM     26  C   UNL     1      -3.599   7.710  -2.662  1.00  0.00     0.278 C 
ENDBRANCH  20  25
ENDBRANCH   9  19
BRANCH  16  27
ATOM     27  C   UNL     1      -5.476  -1.265   1.386  1.00  0.00     0.034 C 
BRANCH  27  28
ATOM     28  C   UNL     1      -6.298  -2.070   2.417  1.00  0.00    -0.015 C 
ATOM     29  C   UNL     1      -6.344  -1.391   3.786  1.00  0.00     0.007 C 
ATOM     30  C   UNL     1      -7.724  -2.271   1.892  1.00  0.00     0.007 C 
ENDBRANCH  27  28
ENDBRANCH  16  27
ENDBRANCH   5   8
ENDBRANCH   3   4
BRANCH   3  31
ATOM     31  C   UNL     1       2.829  -3.129   1.215  1.00  0.00     0.033 C 
BRANCH  31  32
ATOM     32  C   UNL     1       2.530  -4.499   0.589  1.00  0.00     0.004 C 
BRANCH  32  33
ATOM     33  C   UNL     1       2.741  -5.665   1.564  1.00  0.00     0.015 C 
BRANCH  33  34
ATOM     34  C   UNL     1       1.732  -5.735   2.713  1.00  0.00     0.077 C 
BRANCH  34  35
ATOM     35  N   UNL     1       0.363  -5.890   2.228  1.00  0.00    -0.330 NA
ATOM     36  H   UNL     1       0.286  -6.764   1.710  1.00  0.00     0.118 HD
ATOM     37  H   UNL     1      -0.262  -5.981   3.029  1.00  0.00     0.118 HD
ENDBRANCH  34  35
ENDBRANCH  33  34
ENDBRANCH  32  33
ENDBRANCH  31  32
ENDBRANCH   3  31
ENDBRANCH   1   3
BRANCH   1  38
ATOM     38  C   UNL     1       4.693  -1.556  -0.970  1.00  0.00     0.289 C 
ATOM     39  O   UNL     1       5.223  -1.250   0.085  1.00  0.00    -0.266 OA
ATOM     40  N   UNL     1       5.300  -1.561  -2.208  1.00  0.00    -0.349 N 
ATOM     41  H   UNL     1       4.703  -1.787  -3.000  1.00  0.00     0.163 HD
BRANCH  40  42
ATOM     42  C   UNL     1       6.598  -0.960  -2.433  1.00  0.00     0.121 C 
BRANCH  42  43
ATOM     43  C   UNL     1       6.504   0.398  -3.144  1.00  0.00     0.057 C 
BRANCH  43  44
ATOM     44  C   UNL     1       5.639   1.428  -2.451  1.00  0.00    -0.046 A 
ATOM     45  C   UNL     1       5.881   1.806  -1.124  1.00  0.00     0.004 A 
ATOM     46  C   UNL     1       4.577   2.028  -3.140  1.00  0.00     0.004 A 
ATOM     47  C   UNL     1       5.067   2.752  -0.490  1.00  0.00     0.014 A 
ATOM     48  C   UNL     1       3.769   2.979  -2.511  1.00  0.00     0.014 A 
ATOM     49  C   UNL     1       4.011   3.353  -1.185  1.00  0.00     0.039 A 
BRANCH  49  50
ATOM     50  C   UNL     1       3.115   4.371  -0.570  1.00  0.00     0.248 C 
ATOM     51  N   UNL     1       3.510   4.958   0.600  1.00  0.00    -0.366 N 
ATOM     52  O   UNL     1       2.066   4.710  -1.105  1.00  0.00    -0.270 OA
ATOM     53  H   UNL     1       4.450   4.898   0.961  1.00  0.00     0.159 HD
ATOM     54  H   UNL     1       2.925   5.711   0.937  1.00  0.00     0.159 HD
ENDBRANCH  49  50
ENDBRANCH  43  44
ENDBRANCH  42  43
ENDBRANCH  40  42
ENDBRANCH   1  38
TORSDOF 17
