REMARK SMILES N=C(N)c1cccc(C(=O)N[C@@H](C(=O)N2CCN(C(=O)c3ccccc3)CC2)c2ccccc2)c1
REMARK SMILES IDX 9 1 10 2 11 3 8 5 4 6 5 7 35 8 6 9 7 10 2 11 1 12 3 13 12 17
REMARK SMILES IDX 13 18 14 19 15 20 16 21 28 22 17 23 27 24 18 25 19 26 20 27
REMARK SMILES IDX 21 28 22 29 26 30 23 31 25 32 24 33 29 34 30 35 34 36 31 37
REMARK SMILES IDX 33 38 32 39
REMARK H PARENT 11 4 1 14 3 15 3 16
ROOT
ATOM      1  C   UNL     1       2.962   0.168   0.408  1.00  0.00     0.252 C 
ATOM      2  O   UNL     1       2.322   0.996   1.047  1.00  0.00    -0.269 OA
ATOM      3  N   UNL     1       2.546  -1.134   0.236  1.00  0.00    -0.336 N 
ATOM      4  H   UNL     1       2.889  -1.628  -0.577  1.00  0.00     0.165 HD
ENDROOT
BRANCH   1   5
ATOM      5  C   UNL     1       4.233   0.553  -0.267  1.00  0.00     0.040 A 
ATOM      6  C   UNL     1       5.626   2.317  -1.185  1.00  0.00     0.017 A 
ATOM      7  C   UNL     1       6.596   1.363  -1.518  1.00  0.00     0.012 A 
ATOM      8  C   UNL     1       4.449   1.910  -0.547  1.00  0.00     0.025 A 
ATOM      9  C   UNL     1       6.391   0.014  -1.225  1.00  0.00     0.002 A 
ATOM     10  C   UNL     1       5.212  -0.393  -0.600  1.00  0.00     0.014 A 
BRANCH   6  11
ATOM     11  C   UNL     1       5.870   3.756  -1.506  1.00  0.00     0.122 C 
ATOM     12  N   UNL     1       7.066   4.145  -1.809  1.00  0.00    -0.284 NA
ATOM     13  N   UNL     1       4.847   4.660  -1.498  1.00  0.00    -0.384 N 
ATOM     14  H   UNL     1       7.073   5.154  -1.966  1.00  0.00     0.189 HD
ATOM     15  H   UNL     1       3.920   4.293  -1.682  1.00  0.00     0.158 HD
ATOM     16  H   UNL     1       5.013   5.518  -2.009  1.00  0.00     0.158 HD
ENDBRANCH   6  11
ENDBRANCH   1   5
BRANCH   3  17
ATOM     17  C   UNL     1       1.214  -1.534   0.677  1.00  0.00     0.202 C 
BRANCH  17  18
ATOM     18  C   UNL     1       0.199  -1.195  -0.454  1.00  0.00     0.249 C 
ATOM     19  O   UNL     1       0.561  -1.175  -1.637  1.00  0.00    -0.272 OA
ATOM     20  N   UNL     1      -1.126  -0.955  -0.103  1.00  0.00    -0.337 N 
ATOM     21  C   UNL     1      -2.083  -0.583  -1.147  1.00  0.00     0.141 C 
ATOM     22  C   UNL     1      -1.640  -1.004   1.272  1.00  0.00     0.141 C 
ATOM     23  C   UNL     1      -3.123   0.432  -0.652  1.00  0.00     0.141 C 
ATOM     24  C   UNL     1      -3.171  -1.071   1.342  1.00  0.00     0.141 C 
ATOM     25  N   UNL     1      -3.816  -0.009   0.568  1.00  0.00    -0.335 N 
ATOM     26  C   UNL     1      -5.128   0.327   0.891  1.00  0.00     0.253 C 
ATOM     27  O   UNL     1      -5.783  -0.269   1.742  1.00  0.00    -0.269 OA
BRANCH  26  28
ATOM     28  C   UNL     1      -5.775   1.453   0.179  1.00  0.00     0.040 A 
ATOM     29  C   UNL     1      -5.186   2.722   0.156  1.00  0.00     0.014 A 
ATOM     30  C   UNL     1      -7.019   1.241  -0.423  1.00  0.00     0.014 A 
ATOM     31  C   UNL     1      -5.826   3.769  -0.508  1.00  0.00     0.001 A 
ATOM     32  C   UNL     1      -7.655   2.291  -1.086  1.00  0.00     0.001 A 
ATOM     33  C   UNL     1      -7.056   3.551  -1.132  1.00  0.00     0.000 A 
ENDBRANCH  26  28
ENDBRANCH  17  18
BRANCH  17  34
ATOM     34  C   UNL     1       1.237  -3.013   1.030  1.00  0.00    -0.016 A 
ATOM     35  C   UNL     1       1.082  -4.018   0.061  1.00  0.00     0.006 A 
ATOM     36  C   UNL     1       1.471  -3.397   2.362  1.00  0.00     0.006 A 
ATOM     37  C   UNL     1       1.127  -5.366   0.421  1.00  0.00     0.000 A 
ATOM     38  C   UNL     1       1.516  -4.745   2.719  1.00  0.00     0.000 A 
ATOM     39  C   UNL     1       1.341  -5.729   1.749  1.00  0.00     0.000 A 
ENDBRANCH  17  34
ENDBRANCH   3  17
TORSDOF 6
