REMARK SMILES COc1cccc(S(=O)(=O)Nc2cccn(CC(=O)NCc3ccc(C(=N)N)cc3OC)c2=O)c1
REMARK SMILES IDX 12 1 13 2 14 3 15 4 16 5 33 6 34 7 11 8 8 10 9 11 10 12 7 13
REMARK SMILES IDX 3 14 4 15 35 16 5 17 6 18 2 19 1 20 17 21 18 22 19 23 20 24
REMARK SMILES IDX 21 26 22 27 23 28 30 29 24 30 29 31 25 32 31 33 32 34 26 35
REMARK SMILES IDX 27 36 28 37
REMARK H PARENT 11 9 20 25 27 38 28 39 28 40
ROOT
ATOM      1  C   UNL     1       3.465  -0.797   1.387  1.00  0.00     0.114 C 
ATOM      2  C   UNL     1       4.059  -1.484   2.367  1.00  0.00     0.034 C 
ATOM      3  C   UNL     1       3.280  -1.895   3.511  1.00  0.00     0.020 C 
ATOM      4  C   UNL     1       1.977  -1.591   3.589  1.00  0.00     0.090 C 
ATOM      5  N   UNL     1       1.337  -0.882   2.582  1.00  0.00    -0.304 N 
ATOM      6  C   UNL     1       2.001  -0.486   1.423  1.00  0.00     0.275 C 
ATOM      7  O   UNL     1       1.480   0.081   0.462  1.00  0.00    -0.267 OA
ENDROOT
BRANCH   1   8
ATOM      8  N   UNL     1       4.230  -0.407   0.241  1.00  0.00    -0.274 N 
ATOM      9  H   UNL     1       3.566  -0.106  -0.484  1.00  0.00     0.180 HD
BRANCH   8  10
ATOM     10  S   UNL     1       5.230   0.930   0.591  1.00  0.00     0.262 S 
ATOM     11  O   UNL     1       6.305   0.509   1.463  1.00  0.00    -0.201 OA
ATOM     12  O   UNL     1       4.375   2.050   0.921  1.00  0.00    -0.201 OA
BRANCH  10  13
ATOM     13  C   UNL     1       5.930   1.232  -1.014  1.00  0.00     0.091 A 
ATOM     14  C   UNL     1       5.976   2.501  -3.065  1.00  0.00     0.120 A 
ATOM     15  C   UNL     1       7.043   1.708  -3.503  1.00  0.00     0.046 A 
ATOM     16  C   UNL     1       5.417   2.264  -1.811  1.00  0.00     0.068 A 
ATOM     17  C   UNL     1       7.558   0.687  -2.700  1.00  0.00     0.005 A 
ATOM     18  C   UNL     1       7.003   0.448  -1.446  1.00  0.00     0.022 A 
BRANCH  14  19
ATOM     19  O   UNL     1       5.580   3.463  -3.953  1.00  0.00    -0.497 OA
ATOM     20  C   UNL     1       4.524   4.324  -3.543  1.00  0.00     0.278 C 
ENDBRANCH  14  19
ENDBRANCH  10  13
ENDBRANCH   8  10
ENDBRANCH   1   8
BRANCH   5  21
ATOM     21  C   UNL     1      -0.094  -0.618   2.671  1.00  0.00     0.225 C 
BRANCH  21  22
ATOM     22  C   UNL     1      -0.926  -1.761   2.077  1.00  0.00     0.240 C 
ATOM     23  O   UNL     1      -0.559  -2.934   2.067  1.00  0.00    -0.273 OA
ATOM     24  N   UNL     1      -2.159  -1.364   1.606  1.00  0.00    -0.350 N 
ATOM     25  H   UNL     1      -2.505  -0.440   1.832  1.00  0.00     0.163 HD
BRANCH  24  26
ATOM     26  C   UNL     1      -3.127  -2.334   1.150  1.00  0.00     0.155 C 
BRANCH  26  27
ATOM     27  C   UNL     1      -4.218  -1.670   0.345  1.00  0.00     0.013 A 
ATOM     28  C   UNL     1      -4.110  -1.647  -1.057  1.00  0.00     0.010 A 
ATOM     29  C   UNL     1      -5.317  -1.046   0.967  1.00  0.00     0.124 A 
ATOM     30  C   UNL     1      -5.091  -1.033  -1.833  1.00  0.00     0.012 A 
ATOM     31  C   UNL     1      -6.297  -0.426   0.184  1.00  0.00     0.058 A 
ATOM     32  C   UNL     1      -6.182  -0.426  -1.211  1.00  0.00     0.020 A 
BRANCH  29  33
ATOM     33  O   UNL     1      -5.325  -1.081   2.337  1.00  0.00    -0.496 OA
ATOM     34  C   UNL     1      -6.507  -0.644   2.997  1.00  0.00     0.278 C 
ENDBRANCH  29  33
BRANCH  32  35
ATOM     35  C   UNL     1      -7.220   0.231  -2.045  1.00  0.00     0.122 C 
ATOM     36  N   UNL     1      -7.708  -0.337  -3.101  1.00  0.00    -0.284 NA
ATOM     37  N   UNL     1      -7.697   1.462  -1.722  1.00  0.00    -0.384 N 
ATOM     38  H   UNL     1      -7.299  -1.266  -3.241  1.00  0.00     0.189 HD
ATOM     39  H   UNL     1      -7.643   1.797  -0.772  1.00  0.00     0.158 HD
ATOM     40  H   UNL     1      -8.544   1.706  -2.223  1.00  0.00     0.158 HD
ENDBRANCH  32  35
ENDBRANCH  26  27
ENDBRANCH  24  26
ENDBRANCH  21  22
ENDBRANCH   5  21
TORSDOF 10
