REMARK SMILES CCN(CC)S(=O)(=O)c1ccccc1-c1ccc(C(=O)N[C@@H](CCCN=C(N)N)B2O[C@@H]3CC4CC(C4(C)C)[C@]3(C)O2)c(C)c1
REMARK SMILES IDX 19 1 20 2 21 3 18 5 15 6 16 7 45 8 17 9 43 10 44 11 14 12
REMARK SMILES IDX 9 13 10 14 11 15 13 16 12 17 6 18 7 19 8 20 3 21 2 22 1 23
REMARK SMILES IDX 4 24 5 25 22 26 23 27 24 28 25 29 26 30 27 31 28 32 29 33
REMARK SMILES IDX 30 38 31 39 42 40 32 41 40 42 33 43 36 44 34 45 35 46 37 47
REMARK SMILES IDX 41 48 38 49 39 50
REMARK H PARENT 21 4 28 34 28 35 29 36 29 37
ROOT
ATOM      1  C   UNL     1      -0.294   0.657   1.358  1.00  0.00     0.251 C 
ATOM      2  O   UNL     1      -0.451   0.154   2.479  1.00  0.00    -0.269 OA
ATOM      3  N   UNL     1      -1.426   0.954   0.499  1.00  0.00    -0.351 N 
ATOM      4  H   UNL     1      -1.172   1.348  -0.418  1.00  0.00     0.163 HD
ENDROOT
BRANCH   1   5
ATOM      5  C   UNL     1       1.068   0.958   0.891  1.00  0.00     0.042 A 
ATOM      6  C   UNL     1       3.620   1.426  -0.110  1.00  0.00    -0.017 A 
ATOM      7  C   UNL     1       3.163   2.074   1.022  1.00  0.00     0.009 A 
ATOM      8  C   UNL     1       2.762   0.546  -0.717  1.00  0.00     0.013 A 
ATOM      9  C   UNL     1       1.890   1.847   1.530  1.00  0.00     0.015 A 
ATOM     10  C   UNL     1       1.487   0.299  -0.234  1.00  0.00    -0.038 A 
ATOM     11  C   UNL     1       0.606  -0.660  -0.929  1.00  0.00     0.045 C 
BRANCH   6  12
ATOM     12  C   UNL     1       4.953   1.752  -0.583  1.00  0.00     0.002 A 
ATOM     13  C   UNL     1       6.017   0.872  -0.547  1.00  0.00     0.090 A 
ATOM     14  C   UNL     1       7.224   1.308  -1.061  1.00  0.00     0.022 A 
ATOM     15  C   UNL     1       7.372   2.592  -1.598  1.00  0.00     0.001 A 
ATOM     16  C   UNL     1       5.116   3.025  -1.120  1.00  0.00     0.010 A 
ATOM     17  C   UNL     1       6.320   3.463  -1.633  1.00  0.00     0.001 A 
BRANCH  13  18
ATOM     18  S   UNL     1       5.898  -0.719   0.119  1.00  0.00     0.243 S 
ATOM     19  O   UNL     1       5.267  -0.652   1.499  1.00  0.00    -0.207 OA
ATOM     20  O   UNL     1       4.974  -1.541  -0.771  1.00  0.00    -0.207 OA
BRANCH  18  21
ATOM     21  N   UNL     1       7.393  -1.506   0.184  1.00  0.00    -0.198 NA
BRANCH  21  22
ATOM     22  C   UNL     1       8.412  -0.945   0.974  1.00  0.00     0.099 C 
ATOM     23  C   UNL     1       8.318  -1.605   2.364  1.00  0.00     0.022 C 
ENDBRANCH  21  22
BRANCH  21  24
ATOM     24  C   UNL     1       7.722  -2.359  -0.887  1.00  0.00     0.099 C 
ATOM     25  C   UNL     1       7.284  -3.801  -0.614  1.00  0.00     0.022 C 
ENDBRANCH  21  24
ENDBRANCH  18  21
ENDBRANCH  13  18
ENDBRANCH   6  12
ENDBRANCH   1   5
BRANCH   3  26
ATOM     26  C   UNL     1      -2.713   0.640   1.014  1.00  0.00     0.114 C 
BRANCH  26  27
ATOM     27  C   UNL     1      -3.532   1.749   1.552  1.00  0.00     0.024 C 
BRANCH  27  28
ATOM     28  C   UNL     1      -3.948   2.872   0.705  1.00  0.00     0.025 C 
BRANCH  28  29
ATOM     29  C   UNL     1      -2.890   3.721   0.104  1.00  0.00     0.146 C 
BRANCH  29  30
ATOM     30  N   UNL     1      -3.608   4.784  -0.646  1.00  0.00    -0.254 NA
ATOM     31  C   UNL     1      -3.630   5.943  -0.096  1.00  0.00     0.185 C 
ATOM     32  N   UNL     1      -2.970   6.087   1.165  1.00  0.00    -0.370 N 
ATOM     33  N   UNL     1      -4.262   7.072  -0.662  1.00  0.00    -0.370 N 
ATOM     34  H   UNL     1      -2.163   6.741   1.311  1.00  0.00     0.159 HD
ATOM     35  H   UNL     1      -3.303   5.517   1.980  1.00  0.00     0.159 HD
ATOM     36  H   UNL     1      -5.268   7.095  -0.964  1.00  0.00     0.159 HD
ATOM     37  H   UNL     1      -3.678   7.929  -0.783  1.00  0.00     0.159 HD
ENDBRANCH  29  30
ENDBRANCH  28  29
ENDBRANCH  27  28
ENDBRANCH  26  27
BRANCH  26  38
ATOM     38  B   UNL     1      -3.469  -0.213  -0.090  1.00  0.00     0.481 B 
ATOM     39  O   UNL     1      -4.849   0.063  -0.468  1.00  0.00    -0.404 OA
ATOM     40  O   UNL     1      -3.207  -1.634  -0.280  1.00  0.00    -0.402 OA
ATOM     41  C   UNL     1      -5.300  -1.055  -1.163  1.00  0.00     0.132 C 
ATOM     42  C   UNL     1      -4.258  -2.130  -1.041  1.00  0.00     0.079 C 
ATOM     43  C   UNL     1      -6.634  -1.424  -0.610  1.00  0.00     0.037 C 
ATOM     44  C   UNL     1      -4.804  -3.438  -0.588  1.00  0.00     0.028 C 
ATOM     45  C   UNL     1      -6.773  -2.884  -0.304  1.00  0.00    -0.002 C 
ATOM     46  C   UNL     1      -6.074  -3.660  -1.426  1.00  0.00     0.011 C 
ATOM     47  C   UNL     1      -5.702  -3.409   0.601  1.00  0.00    -0.027 C 
ATOM     48  C   UNL     1      -3.689  -2.370  -2.439  1.00  0.00     0.044 C 
ATOM     49  C   UNL     1      -6.055  -4.853   0.980  1.00  0.00     0.012 C 
ATOM     50  C   UNL     1      -5.290  -2.606   1.772  1.00  0.00     0.012 C 
ENDBRANCH  26  38
ENDBRANCH   3  26
TORSDOF 12
