REMARK SMILES Cc1nc(N)ccc1CNC(=O)Cn1c(C2CC2)ccc(NS(=O)(=O)Cc2ccc(Cl)cc2)c1=O
REMARK SMILES IDX 14 1 15 2 19 3 20 4 21 5 34 6 35 7 13 8 11 9 10 10 12 11
REMARK SMILES IDX 9 13 8 14 2 15 3 16 4 17 7 18 6 19 1 20 5 21 16 24 17 25
REMARK SMILES IDX 18 26 22 27 23 29 24 30 25 31 26 32 27 33 28 34 33 35 29 36
REMARK SMILES IDX 32 37 30 38 31 39
REMARK H PARENT 10 12 5 22 5 23 22 28
ROOT
ATOM      1  N   UNL     1       0.233  -1.791   1.383  1.00  0.00    -0.301 N 
ATOM      2  C   UNL     1      -0.082  -3.057   0.858  1.00  0.00     0.025 C 
ATOM      3  C   UNL     1      -0.503  -3.143  -0.422  1.00  0.00     0.024 C 
ATOM      4  C   UNL     1      -0.609  -1.990  -1.277  1.00  0.00     0.034 C 
ATOM      5  C   UNL     1      -0.339  -0.782  -0.782  1.00  0.00     0.114 C 
ATOM      6  C   UNL     1       0.091  -0.616   0.635  1.00  0.00     0.275 C 
ATOM      7  O   UNL     1       0.317   0.516   1.071  1.00  0.00    -0.267 OA
ENDROOT
BRANCH   1   8
ATOM      8  C   UNL     1       0.864  -1.635   2.697  1.00  0.00     0.225 C 
BRANCH   8   9
ATOM      9  C   UNL     1       2.371  -1.470   2.469  1.00  0.00     0.240 C 
ATOM     10  N   UNL     1       2.761  -0.149   2.323  1.00  0.00    -0.350 N 
ATOM     11  O   UNL     1       3.128  -2.424   2.314  1.00  0.00    -0.273 OA
ATOM     12  H   UNL     1       1.996   0.512   2.207  1.00  0.00     0.163 HD
BRANCH  10  13
ATOM     13  C   UNL     1       3.974   0.185   1.607  1.00  0.00     0.153 C 
BRANCH  13  14
ATOM     14  C   UNL     1       3.666   0.338   0.138  1.00  0.00    -0.007 A 
ATOM     15  C   UNL     1       3.134   1.511  -0.411  1.00  0.00     0.045 A 
ATOM     16  N   UNL     1       2.732   1.599  -1.706  1.00  0.00    -0.236 NA
ATOM     17  C   UNL     1       2.909   0.533  -2.506  1.00  0.00     0.123 A 
ATOM     18  C   UNL     1       3.814  -0.760  -0.717  1.00  0.00     0.011 A 
ATOM     19  C   UNL     1       3.449  -0.657  -2.055  1.00  0.00     0.047 A 
ATOM     20  C   UNL     1       2.949   2.761   0.401  1.00  0.00     0.067 C 
BRANCH  17  21
ATOM     21  N   UNL     1       2.508   0.678  -3.829  1.00  0.00    -0.384 N 
ATOM     22  H   UNL     1       2.105   1.607  -3.930  1.00  0.00     0.158 HD
ATOM     23  H   UNL     1       1.838  -0.036  -4.095  1.00  0.00     0.158 HD
ENDBRANCH  17  21
ENDBRANCH  13  14
ENDBRANCH  10  13
ENDBRANCH   8   9
ENDBRANCH   1   8
BRANCH   2  24
ATOM     24  C   UNL     1       0.088  -4.260   1.706  1.00  0.00     0.036 C 
ATOM     25  C   UNL     1      -0.878  -4.504   2.843  1.00  0.00     0.010 C 
ATOM     26  C   UNL     1      -0.907  -5.397   1.642  1.00  0.00     0.010 C 
ENDBRANCH   2  24
BRANCH   5  27
ATOM     27  N   UNL     1      -0.260   0.294  -1.709  1.00  0.00    -0.278 N 
ATOM     28  H   UNL     1       0.460   0.988  -1.460  1.00  0.00     0.180 HD
BRANCH  27  29
ATOM     29  S   UNL     1      -1.727   1.082  -2.022  1.00  0.00     0.237 S 
ATOM     30  O   UNL     1      -2.724   0.071  -2.311  1.00  0.00    -0.206 OA
ATOM     31  O   UNL     1      -1.399   2.108  -2.992  1.00  0.00    -0.206 OA
BRANCH  29  32
ATOM     32  C   UNL     1      -2.109   1.871  -0.445  1.00  0.00     0.195 C 
BRANCH  32  33
ATOM     33  C   UNL     1      -3.347   2.718  -0.605  1.00  0.00    -0.031 A 
ATOM     34  C   UNL     1      -3.242   4.073  -0.953  1.00  0.00     0.006 A 
ATOM     35  C   UNL     1      -4.621   2.160  -0.419  1.00  0.00     0.006 A 
ATOM     36  C   UNL     1      -4.389   4.856  -1.104  1.00  0.00     0.021 A 
ATOM     37  C   UNL     1      -5.767   2.944  -0.570  1.00  0.00     0.021 A 
ATOM     38  C   UNL     1      -5.646   4.289  -0.910  1.00  0.00     0.041 A 
ATOM     39  Cl  UNL     1      -7.058   5.255  -1.094  1.00  0.00    -0.084 Cl
ENDBRANCH  32  33
ENDBRANCH  29  32
ENDBRANCH  27  29
ENDBRANCH   5  27
TORSDOF 10
