REMARK SMILES CS(=O)(=O)NCC1(C(=O)Nc2ccc(-c3ccccc3S(N)(=O)=O)cn2)CC(c2ccc3onc(N)c3c2)=NO1
REMARK SMILES IDX 8 1 9 2 10 3 7 5 27 6 40 7 28 8 39 9 6 10 5 11 2 13 3 14
REMARK SMILES IDX 4 15 1 16 29 17 30 18 38 19 31 20 37 21 32 22 35 23 33 24
REMARK SMILES IDX 34 25 36 26 11 29 12 30 26 31 13 32 25 33 14 34 15 35 16 36
REMARK SMILES IDX 20 37 17 38 19 39 18 40 21 41 23 42 24 43 22 44
REMARK H PARENT 10 4 5 12 36 27 36 28 22 45 22 46
ROOT
ATOM      1  C   UNL     1       0.210   0.269  -0.091  1.00  0.00     0.274 C 
ATOM      2  O   UNL     1       0.073   1.361   0.458  1.00  0.00    -0.270 OA
ATOM      3  N   UNL     1      -0.804  -0.495  -0.620  1.00  0.00    -0.307 N 
ATOM      4  H   UNL     1      -0.564  -1.337  -1.134  1.00  0.00     0.171 HD
ENDROOT
BRANCH   1   5
ATOM      5  C   UNL     1       1.585  -0.412  -0.152  1.00  0.00     0.234 C 
ATOM      6  C   UNL     1       2.700   0.615  -0.240  1.00  0.00     0.124 C 
ATOM      7  O   UNL     1       1.686  -1.176  -1.365  1.00  0.00    -0.377 OA
ATOM      8  C   UNL     1       3.566  -0.069  -1.241  1.00  0.00     0.092 C 
ATOM      9  N   UNL     1       3.004  -1.059  -1.862  1.00  0.00    -0.089 NA
BRANCH   5  10
ATOM     10  C   UNL     1       1.695  -1.363   1.056  1.00  0.00     0.161 C 
BRANCH  10  11
ATOM     11  N   UNL     1       3.022  -2.032   1.100  1.00  0.00    -0.211 NA
ATOM     12  H   UNL     1       3.275  -2.518   0.229  1.00  0.00     0.141 HD
BRANCH  11  13
ATOM     13  S   UNL     1       3.368  -2.988   2.438  1.00  0.00     0.208 S 
ATOM     14  O   UNL     1       4.389  -3.915   2.008  1.00  0.00    -0.213 OA
ATOM     15  O   UNL     1       2.118  -3.433   3.009  1.00  0.00    -0.213 OA
ATOM     16  C   UNL     1       4.120  -1.802   3.531  1.00  0.00     0.176 C 
ENDBRANCH  11  13
ENDBRANCH  10  11
ENDBRANCH   5  10
BRANCH   8  17
ATOM     17  C   UNL     1       4.959   0.365  -1.501  1.00  0.00     0.000 A 
ATOM     18  C   UNL     1       5.774  -0.439  -2.316  1.00  0.00     0.014 A 
ATOM     19  C   UNL     1       5.457   1.556  -0.943  1.00  0.00     0.026 A 
ATOM     20  C   UNL     1       7.103  -0.092  -2.590  1.00  0.00     0.051 A 
ATOM     21  C   UNL     1       6.792   1.918  -1.216  1.00  0.00     0.066 A 
ATOM     22  C   UNL     1       7.559   1.090  -2.016  1.00  0.00     0.169 A 
ATOM     23  C   UNL     1       7.676   2.976  -0.883  1.00  0.00     0.174 A 
ATOM     24  O   UNL     1       8.806   1.616  -2.143  1.00  0.00    -0.354 OA
ATOM     25  N   UNL     1       8.881   2.801  -1.429  1.00  0.00    -0.061 NA
BRANCH  23  26
ATOM     26  N   UNL     1       7.337   4.032  -0.116  1.00  0.00    -0.380 N 
ATOM     27  H   UNL     1       7.985   4.814  -0.131  1.00  0.00     0.158 HD
ATOM     28  H   UNL     1       6.370   4.328  -0.064  1.00  0.00     0.158 HD
ENDBRANCH  23  26
ENDBRANCH   8  17
ENDBRANCH   1   5
BRANCH   3  29
ATOM     29  C   UNL     1      -2.170  -0.225  -0.662  1.00  0.00     0.132 A 
ATOM     30  C   UNL     1      -2.771   0.876  -0.071  1.00  0.00     0.048 A 
ATOM     31  N   UNL     1      -2.873  -1.158  -1.335  1.00  0.00    -0.238 NA
ATOM     32  C   UNL     1      -4.155   1.028  -0.178  1.00  0.00     0.014 A 
ATOM     33  C   UNL     1      -4.217  -0.993  -1.412  1.00  0.00     0.122 A 
ATOM     34  C   UNL     1      -4.917   0.076  -0.859  1.00  0.00     0.002 A 
BRANCH  34  35
ATOM     35  C   UNL     1      -6.370   0.209  -1.008  1.00  0.00     0.003 A 
ATOM     36  C   UNL     1      -6.879   0.623  -2.254  1.00  0.00     0.010 A 
ATOM     37  C   UNL     1      -7.294  -0.040   0.028  1.00  0.00     0.090 A 
ATOM     38  C   UNL     1      -8.251   0.786  -2.462  1.00  0.00     0.001 A 
ATOM     39  C   UNL     1      -8.672   0.128  -0.182  1.00  0.00     0.022 A 
ATOM     40  C   UNL     1      -9.146   0.541  -1.426  1.00  0.00     0.001 A 
BRANCH  37  41
ATOM     41  S   UNL     1      -6.718  -0.600   1.609  1.00  0.00     0.238 S 
ATOM     42  O   UNL     1      -5.967  -1.819   1.429  1.00  0.00    -0.207 OA
ATOM     43  O   UNL     1      -6.222   0.539   2.346  1.00  0.00    -0.207 OA
BRANCH  41  44
ATOM     44  N   UNL     1      -8.105  -1.084   2.434  1.00  0.00    -0.225 NA
ATOM     45  H   UNL     1      -8.205  -0.516   3.277  1.00  0.00     0.137 HD
ATOM     46  H   UNL     1      -8.038  -2.085   2.628  1.00  0.00     0.137 HD
ENDBRANCH  41  44
ENDBRANCH  37  41
ENDBRANCH  34  35
ENDBRANCH   3  29
TORSDOF 10
