REMARK SMILES NCc1ccc(C(=O)Nc2ccccc2)cc1
REMARK SMILES IDX 3 1 4 2 5 3 6 4 16 5 17 6 2 7 1 8 7 11 8 12 9 13 10 15 11 16
REMARK SMILES IDX 15 17 12 18 14 19 13 20
REMARK H PARENT 1 9 1 10 9 14
ROOT
ATOM      1  C   UNL     1      -3.522  -0.102   0.407  1.00  0.00    -0.034 A 
ATOM      2  C   UNL     1      -2.541  -0.947   0.947  1.00  0.00     0.006 A 
ATOM      3  C   UNL     1      -1.189  -0.599   0.882  1.00  0.00     0.014 A 
ATOM      4  C   UNL     1      -0.803   0.597   0.264  1.00  0.00     0.040 A 
ATOM      5  C   UNL     1      -1.775   1.452  -0.264  1.00  0.00     0.014 A 
ATOM      6  C   UNL     1      -3.125   1.099  -0.200  1.00  0.00     0.006 A 
ENDROOT
BRANCH   1   7
ATOM      7  C   UNL     1      -4.982  -0.471   0.473  1.00  0.00     0.113 C 
BRANCH   7   8
ATOM      8  N   UNL     1      -5.495  -0.826  -0.843  1.00  0.00    -0.326 NA
ATOM      9  H   UNL     1      -4.958  -1.611  -1.209  1.00  0.00     0.119 HD
ATOM     10  H   UNL     1      -6.456  -1.151  -0.751  1.00  0.00     0.119 HD
ENDBRANCH   7   8
ENDBRANCH   1   7
BRANCH   4  11
ATOM     11  C   UNL     1       0.628   1.005   0.176  1.00  0.00     0.255 C 
ATOM     12  O   UNL     1       0.902   2.192   0.298  1.00  0.00    -0.269 OA
ATOM     13  N   UNL     1       1.507  -0.033  -0.077  1.00  0.00    -0.322 N 
ATOM     14  H   UNL     1       1.100  -0.935  -0.288  1.00  0.00     0.170 HD
BRANCH  13  15
ATOM     15  C   UNL     1       2.912   0.039  -0.172  1.00  0.00     0.041 A 
ATOM     16  C   UNL     1       3.653   1.196   0.074  1.00  0.00     0.026 A 
ATOM     17  C   UNL     1       3.591  -1.136  -0.524  1.00  0.00     0.026 A 
ATOM     18  C   UNL     1       5.048   1.182  -0.035  1.00  0.00     0.002 A 
ATOM     19  C   UNL     1       4.984  -1.150  -0.633  1.00  0.00     0.002 A 
ATOM     20  C   UNL     1       5.713   0.011  -0.389  1.00  0.00     0.000 A 
ENDBRANCH  13  15
ENDBRANCH   4  11
TORSDOF 4
