REMARK SMILES CC(=O)N[C@H](Cc1ccccc1)C(=O)N1CCC[C@H]1C(=O)N[C@@H](CCCn1ccnc1[N+](=O)[O-])B1O[C@@H]2CC3CC(C3(C)C)[C@]2(C)O1
REMARK SMILES IDX 23 1 22 2 20 3 21 4 19 6 15 7 16 8 17 9 18 10 13 11 14 12
REMARK SMILES IDX 5 13 4 14 2 15 3 16 1 17 6 19 7 20 8 21 12 22 9 23 11 24
REMARK SMILES IDX 10 25 24 26 25 27 26 28 27 29 28 30 31 31 29 32 30 33 32 34
REMARK SMILES IDX 33 35 34 36 35 37 36 38 47 39 37 40 45 41 38 42 41 43 39 44
REMARK SMILES IDX 40 45 42 46 46 47 43 48 44 49
REMARK H PARENT 22 5 4 18
ROOT
ATOM      1  C   UNL     1      -1.795   0.419   0.946  1.00  0.00     0.114 C 
ENDROOT
BRANCH   1   2
ATOM      2  N   UNL     1      -0.802   0.863   0.012  1.00  0.00    -0.353 N 
ATOM      3  C   UNL     1       0.605   0.532   0.221  1.00  0.00     0.242 C 
ATOM      4  O   UNL     1       0.831  -0.138   1.234  1.00  0.00    -0.273 OA
ATOM      5  H   UNL     1      -1.095   1.423  -0.819  1.00  0.00     0.163 HD
BRANCH   3   6
ATOM      6  C   UNL     1       1.527   1.030  -0.780  1.00  0.00     0.174 C 
ATOM      7  N   UNL     1       2.903   0.662  -0.712  1.00  0.00    -0.329 N 
ATOM      8  C   UNL     1       3.480   1.263  -1.945  1.00  0.00     0.120 C 
ATOM      9  C   UNL     1       2.392   0.947  -2.954  1.00  0.00     0.024 C 
ATOM     10  C   UNL     1       1.180   0.488  -2.187  1.00  0.00     0.037 C 
BRANCH   7  11
ATOM     11  C   UNL     1       3.708  -0.068   0.180  1.00  0.00     0.246 C 
ATOM     12  O   UNL     1       3.285  -0.632   1.239  1.00  0.00    -0.272 OA
BRANCH  11  13
ATOM     13  C   UNL     1       5.180  -0.249  -0.053  1.00  0.00     0.175 C 
BRANCH  13  14
ATOM     14  N   UNL     1       5.741  -1.174   0.925  1.00  0.00    -0.344 N 
ATOM     15  C   UNL     1       6.501  -2.267   0.369  1.00  0.00     0.217 C 
ATOM     16  O   UNL     1       6.648  -2.383  -0.884  1.00  0.00    -0.275 OA
ATOM     17  C   UNL     1       7.135  -3.294   1.250  1.00  0.00     0.114 C 
ATOM     18  H   UNL     1       5.615  -1.069   1.954  1.00  0.00     0.164 HD
ENDBRANCH  13  14
BRANCH  13  19
ATOM     19  C   UNL     1       5.839   1.086   0.247  1.00  0.00     0.070 C 
BRANCH  19  20
ATOM     20  C   UNL     1       7.301   1.031   0.109  1.00  0.00    -0.045 A 
ATOM     21  C   UNL     1       8.151   0.694   1.167  1.00  0.00     0.004 A 
ATOM     22  C   UNL     1       7.839   1.330  -1.136  1.00  0.00     0.004 A 
ATOM     23  C   UNL     1       9.508   0.648   1.018  1.00  0.00     0.000 A 
ATOM     24  C   UNL     1       9.201   1.280  -1.272  1.00  0.00     0.000 A 
ATOM     25  C   UNL     1      10.031   0.948  -0.227  1.00  0.00     0.000 A 
ENDBRANCH  19  20
ENDBRANCH  13  19
ENDBRANCH  11  13
ENDBRANCH   7  11
ENDBRANCH   3   6
ENDBRANCH   1   2
BRANCH   1  26
ATOM     26  C   UNL     1      -2.665   1.542   1.485  1.00  0.00     0.025 C 
BRANCH  26  27
ATOM     27  C   UNL     1      -1.873   2.599   2.203  1.00  0.00     0.040 C 
BRANCH  27  28
ATOM     28  C   UNL     1      -2.759   3.702   2.745  1.00  0.00     0.206 C 
BRANCH  28  29
ATOM     29  N   UNL     1      -3.466   4.316   1.648  1.00  0.00    -0.229 N 
ATOM     30  C   UNL     1      -4.684   3.917   1.196  1.00  0.00     0.204 A 
ATOM     31  C   UNL     1      -3.129   5.353   0.863  1.00  0.00     0.434 A 
ATOM     32  C   UNL     1      -5.090   4.696   0.150  1.00  0.00     0.245 A 
ATOM     33  N   UNL     1      -4.098   5.596  -0.046  1.00  0.00    -0.074 NA
BRANCH  31  34
ATOM     34  N   UNL     1      -1.929   6.105   0.956  1.00  0.00    -0.047 N 
ATOM     35  O   UNL     1      -1.029   5.908   1.772  1.00  0.00    -0.390 OA
ATOM     36  O   UNL     1      -1.765   7.145   0.052  1.00  0.00    -0.390 OA
ENDBRANCH  31  34
ENDBRANCH  28  29
ENDBRANCH  27  28
ENDBRANCH  26  27
ENDBRANCH   1  26
BRANCH   1  37
ATOM     37  B   UNL     1      -2.721  -0.713   0.297  1.00  0.00     0.481 B 
ATOM     38  O   UNL     1      -2.522  -2.169   0.352  1.00  0.00    -0.404 OA
ATOM     39  O   UNL     1      -3.996  -0.513  -0.343  1.00  0.00    -0.402 OA
ATOM     40  C   UNL     1      -3.817  -2.611   0.640  1.00  0.00     0.132 C 
ATOM     41  C   UNL     1      -4.767  -1.617   0.029  1.00  0.00     0.079 C 
ATOM     42  C   UNL     1      -3.932  -4.004   0.105  1.00  0.00     0.037 C 
ATOM     43  C   UNL     1      -5.401  -2.110  -1.247  1.00  0.00     0.028 C 
ATOM     44  C   UNL     1      -4.611  -4.036  -1.245  1.00  0.00    -0.002 C 
ATOM     45  C   UNL     1      -4.264  -2.780  -2.032  1.00  0.00     0.011 C 
ATOM     46  C   UNL     1      -6.012  -3.460  -1.167  1.00  0.00    -0.027 C 
ATOM     47  C   UNL     1      -5.766  -1.112   1.036  1.00  0.00     0.044 C 
ATOM     48  C   UNL     1      -6.780  -3.828   0.068  1.00  0.00     0.012 C 
ATOM     49  C   UNL     1      -6.773  -3.790  -2.422  1.00  0.00     0.012 C 
ENDBRANCH   1  37
TORSDOF 13
