REMARK SMILES CNS(=O)(=O)c1ccccc1-c1ccc(NC(=O)Cc2c[nH]c3ccc(C(=N)N)cc23)cc1
REMARK SMILES IDX 12 1 13 2 14 3 15 4 32 5 33 6 11 7 6 8 7 9 8 10 10 11 9 12
REMARK SMILES IDX 3 13 4 14 5 15 2 16 1 17 16 19 17 20 18 21 19 23 20 24 21 25
REMARK SMILES IDX 31 26 22 27 30 28 23 29 26 30 24 31 25 32 27 34 28 35 29 36
REMARK H PARENT 2 18 16 22 22 33 28 37 29 38 29 39
ROOT
ATOM      1  C   UNL     1      -2.444   0.486  -1.530  1.00  0.00    -0.017 A 
ATOM      2  C   UNL     1      -2.135   1.437  -0.551  1.00  0.00     0.011 A 
ATOM      3  C   UNL     1      -0.853   1.990  -0.472  1.00  0.00     0.027 A 
ATOM      4  C   UNL     1       0.147   1.613  -1.376  1.00  0.00     0.041 A 
ATOM      5  C   UNL     1      -0.158   0.672  -2.359  1.00  0.00     0.027 A 
ATOM      6  C   UNL     1      -1.441   0.115  -2.435  1.00  0.00     0.011 A 
ENDROOT
BRANCH   1   7
ATOM      7  C   UNL     1      -3.791  -0.091  -1.621  1.00  0.00     0.002 A 
ATOM      8  C   UNL     1      -4.133  -1.371  -1.142  1.00  0.00     0.090 A 
ATOM      9  C   UNL     1      -5.433  -1.875  -1.311  1.00  0.00     0.022 A 
ATOM     10  C   UNL     1      -6.410  -1.103  -1.940  1.00  0.00     0.001 A 
ATOM     11  C   UNL     1      -4.799   0.667  -2.249  1.00  0.00     0.010 A 
ATOM     12  C   UNL     1      -6.095   0.169  -2.404  1.00  0.00     0.001 A 
BRANCH   8  13
ATOM     13  S   UNL     1      -2.916  -2.364  -0.305  1.00  0.00     0.240 S 
ATOM     14  O   UNL     1      -2.118  -3.011  -1.323  1.00  0.00    -0.207 OA
ATOM     15  O   UNL     1      -2.338  -1.601   0.779  1.00  0.00    -0.207 OA
BRANCH  13  16
ATOM     16  N   UNL     1      -3.801  -3.613   0.410  1.00  0.00    -0.214 NA
ATOM     17  C   UNL     1      -4.341  -3.389   1.748  1.00  0.00     0.120 C 
ATOM     18  H   UNL     1      -3.385  -4.522   0.205  1.00  0.00     0.141 HD
ENDBRANCH  13  16
ENDBRANCH   8  13
ENDBRANCH   1   7
BRANCH   4  19
ATOM     19  N   UNL     1       1.414   2.206  -1.214  1.00  0.00    -0.326 N 
ATOM     20  C   UNL     1       2.563   1.976  -1.952  1.00  0.00     0.228 C 
ATOM     21  O   UNL     1       2.645   1.284  -2.965  1.00  0.00    -0.274 OA
ATOM     22  H   UNL     1       1.511   2.820  -0.414  1.00  0.00     0.169 HD
BRANCH  20  23
ATOM     23  C   UNL     1       3.788   2.731  -1.445  1.00  0.00     0.138 C 
BRANCH  23  24
ATOM     24  C   UNL     1       3.942   2.711   0.047  1.00  0.00    -0.013 A 
ATOM     25  C   UNL     1       4.054   3.813   0.874  1.00  0.00     0.087 A 
ATOM     26  C   UNL     1       3.994   1.552   0.891  1.00  0.00     0.004 A 
ATOM     27  N   UNL     1       4.162   3.374   2.166  1.00  0.00    -0.361 N 
ATOM     28  C   UNL     1       3.933   0.163   0.651  1.00  0.00     0.022 A 
ATOM     29  C   UNL     1       4.106   2.000   2.208  1.00  0.00     0.046 A 
ATOM     30  C   UNL     1       3.972  -0.717   1.741  1.00  0.00     0.017 A 
ATOM     31  C   UNL     1       4.148   1.133   3.306  1.00  0.00     0.027 A 
ATOM     32  C   UNL     1       4.070  -0.239   3.050  1.00  0.00     0.014 A 
ATOM     33  H   UNL     1       4.263   3.967   2.978  1.00  0.00     0.166 HD
BRANCH  30  34
ATOM     34  C   UNL     1       3.890  -2.181   1.510  1.00  0.00     0.122 C 
ATOM     35  N   UNL     1       4.519  -2.770   0.544  1.00  0.00    -0.284 NA
ATOM     36  N   UNL     1       3.120  -2.958   2.324  1.00  0.00    -0.384 N 
ATOM     37  H   UNL     1       5.086  -2.101   0.015  1.00  0.00     0.189 HD
ATOM     38  H   UNL     1       2.239  -2.538   2.599  1.00  0.00     0.158 HD
ATOM     39  H   UNL     1       2.983  -3.872   1.901  1.00  0.00     0.158 HD
ENDBRANCH  30  34
ENDBRANCH  23  24
ENDBRANCH  20  23
ENDBRANCH   4  19
TORSDOF 7
