REMARK SMILES CC(Cc1ccc(C(=O)Oc2ccc(C(=N)N)cc2)o1)C(=O)NCCc1ccccc1
REMARK SMILES IDX 4 1 5 2 6 3 7 4 20 5 3 6 2 7 1 8 21 9 22 10 23 11 24 13
REMARK SMILES IDX 25 14 26 15 27 16 31 17 28 18 30 19 29 20 8 21 9 22 10 23
REMARK SMILES IDX 11 24 12 25 19 26 13 27 18 28 14 29 15 30 16 31 17 32
REMARK H PARENT 23 12 16 33 17 34 17 35
ROOT
ATOM      1  C   UNL     1      -0.087   2.641  -2.443  1.00  0.00     0.105 A 
ATOM      2  C   UNL     1       0.378   3.697  -1.691  1.00  0.00     0.046 A 
ATOM      3  C   UNL     1       1.275   3.148  -0.745  1.00  0.00     0.058 A 
ATOM      4  C   UNL     1       1.306   1.783  -0.967  1.00  0.00     0.212 A 
ATOM      5  O   UNL     1       0.482   1.480  -2.018  1.00  0.00    -0.454 OA
ENDROOT
BRANCH   1   6
ATOM      6  C   UNL     1      -1.040   2.547  -3.582  1.00  0.00     0.088 C 
BRANCH   6   7
ATOM      7  C   UNL     1      -2.322   1.746  -3.320  1.00  0.00     0.083 C 
ATOM      8  C   UNL     1      -2.102   0.250  -3.092  1.00  0.00     0.018 C 
BRANCH   7   9
ATOM      9  C   UNL     1      -3.191   2.373  -2.235  1.00  0.00     0.223 C 
ATOM     10  O   UNL     1      -4.222   2.979  -2.517  1.00  0.00    -0.275 OA
ATOM     11  N   UNL     1      -2.737   2.239  -0.945  1.00  0.00    -0.356 N 
ATOM     12  H   UNL     1      -1.980   1.590  -0.764  1.00  0.00     0.163 HD
BRANCH  11  13
ATOM     13  C   UNL     1      -3.550   2.646   0.186  1.00  0.00     0.120 C 
BRANCH  13  14
ATOM     14  C   UNL     1      -2.738   2.787   1.478  1.00  0.00     0.056 C 
BRANCH  14  15
ATOM     15  C   UNL     1      -2.042   1.523   1.935  1.00  0.00    -0.046 A 
ATOM     16  C   UNL     1      -2.744   0.321   2.099  1.00  0.00     0.004 A 
ATOM     17  C   UNL     1      -0.675   1.551   2.246  1.00  0.00     0.004 A 
ATOM     18  C   UNL     1      -2.088  -0.831   2.540  1.00  0.00     0.000 A 
ATOM     19  C   UNL     1      -0.021   0.399   2.688  1.00  0.00     0.000 A 
ATOM     20  C   UNL     1      -0.727  -0.792   2.833  1.00  0.00     0.000 A 
ENDBRANCH  14  15
ENDBRANCH  13  14
ENDBRANCH  11  13
ENDBRANCH   7   9
ENDBRANCH   6   7
ENDBRANCH   1   6
BRANCH   4  21
ATOM     21  C   UNL     1       2.023   0.733  -0.281  1.00  0.00     0.379 C 
ATOM     22  O   UNL     1       2.785   0.910   0.664  1.00  0.00    -0.242 OA
BRANCH  21  23
ATOM     23  O   UNL     1       1.698  -0.498  -0.846  1.00  0.00    -0.421 OA
BRANCH  23  24
ATOM     24  C   UNL     1       2.251  -1.628  -0.231  1.00  0.00     0.131 A 
ATOM     25  C   UNL     1       3.630  -1.833  -0.190  1.00  0.00     0.048 A 
ATOM     26  C   UNL     1       1.363  -2.582   0.263  1.00  0.00     0.048 A 
ATOM     27  C   UNL     1       4.130  -2.996   0.398  1.00  0.00     0.016 A 
ATOM     28  C   UNL     1       1.864  -3.746   0.847  1.00  0.00     0.016 A 
ATOM     29  C   UNL     1       3.247  -3.949   0.923  1.00  0.00     0.016 A 
BRANCH  29  30
ATOM     30  C   UNL     1       3.769  -5.195   1.544  1.00  0.00     0.122 C 
ATOM     31  N   UNL     1       4.865  -5.228   2.232  1.00  0.00    -0.284 NA
ATOM     32  N   UNL     1       3.095  -6.370   1.395  1.00  0.00    -0.384 N 
ATOM     33  H   UNL     1       5.271  -4.293   2.329  1.00  0.00     0.189 HD
ATOM     34  H   UNL     1       3.675  -7.153   1.684  1.00  0.00     0.158 HD
ATOM     35  H   UNL     1       2.669  -6.520   0.489  1.00  0.00     0.158 HD
ENDBRANCH  29  30
ENDBRANCH  23  24
ENDBRANCH  21  23
ENDBRANCH   4  21
TORSDOF 10
