REMARK SMILES N=C(N)c1ccc(OC(=O)c2ccc(CCC(=O)N(CCC(=O)O)CC(=O)O)o2)cc1
REMARK SMILES IDX 16 1 15 2 14 3 11 4 12 5 29 6 13 7 9 8 10 9 8 10 7 11 4 12
REMARK SMILES IDX 5 13 31 14 6 15 30 16 2 17 1 18 3 19 17 23 18 24 19 25 20 26
REMARK SMILES IDX 21 27 22 28 23 29 24 30 25 32 26 33 27 34 28 35
REMARK H PARENT 1 20 3 21 3 22 24 31 28 36
ROOT
ATOM      1  C   UNL     1       2.875   0.247   1.378  1.00  0.00     0.108 C 
ENDROOT
BRANCH   1   2
ATOM      2  C   UNL     1       2.470  -1.178   1.757  1.00  0.00     0.085 C 
BRANCH   2   3
ATOM      3  C   UNL     1       1.260  -1.621   1.014  1.00  0.00     0.105 A 
ATOM      4  C   UNL     1      -0.914  -1.649   0.647  1.00  0.00     0.212 A 
ATOM      5  C   UNL     1      -0.325  -2.420  -0.342  1.00  0.00     0.058 A 
ATOM      6  O   UNL     1       0.063  -1.163   1.476  1.00  0.00    -0.454 OA
ATOM      7  C   UNL     1       1.069  -2.403  -0.103  1.00  0.00     0.046 A 
BRANCH   4   8
ATOM      8  C   UNL     1      -2.287  -1.283   0.913  1.00  0.00     0.379 C 
ATOM      9  O   UNL     1      -2.678  -0.564   1.826  1.00  0.00    -0.242 OA
BRANCH   8  10
ATOM     10  O   UNL     1      -3.106  -1.880  -0.047  1.00  0.00    -0.421 OA
BRANCH  10  11
ATOM     11  C   UNL     1      -4.478  -1.577  -0.041  1.00  0.00     0.131 A 
ATOM     12  C   UNL     1      -7.212  -1.095  -0.199  1.00  0.00     0.016 A 
ATOM     13  C   UNL     1      -6.735  -2.412  -0.191  1.00  0.00     0.016 A 
ATOM     14  C   UNL     1      -6.315  -0.020  -0.139  1.00  0.00     0.016 A 
ATOM     15  C   UNL     1      -5.361  -2.654  -0.117  1.00  0.00     0.048 A 
ATOM     16  C   UNL     1      -4.941  -0.261  -0.071  1.00  0.00     0.048 A 
BRANCH  12  17
ATOM     17  C   UNL     1      -8.676  -0.848  -0.291  1.00  0.00     0.122 C 
ATOM     18  N   UNL     1      -9.258   0.137   0.312  1.00  0.00    -0.284 NA
ATOM     19  N   UNL     1      -9.463  -1.671  -1.042  1.00  0.00    -0.384 N 
ATOM     20  H   UNL     1      -8.593   0.659   0.893  1.00  0.00     0.189 HD
ATOM     21  H   UNL     1      -9.054  -1.991  -1.912  1.00  0.00     0.158 HD
ATOM     22  H   UNL     1     -10.384  -1.264  -1.176  1.00  0.00     0.158 HD
ENDBRANCH  12  17
ENDBRANCH  10  11
ENDBRANCH   8  10
ENDBRANCH   4   8
ENDBRANCH   2   3
ENDBRANCH   1   2
BRANCH   1  23
ATOM     23  C   UNL     1       3.550   0.326   0.017  1.00  0.00     0.223 C 
ATOM     24  O   UNL     1       3.839  -0.694  -0.613  1.00  0.00    -0.275 OA
BRANCH  23  25
ATOM     25  N   UNL     1       3.845   1.592  -0.484  1.00  0.00    -0.331 N 
BRANCH  25  26
ATOM     26  C   UNL     1       4.545   1.667  -1.773  1.00  0.00     0.132 C 
BRANCH  26  27
ATOM     27  C   UNL     1       6.054   1.468  -1.656  1.00  0.00     0.144 C 
BRANCH  27  28
ATOM     28  C   UNL     1       6.674   1.385  -3.020  1.00  0.00     0.305 C 
ATOM     29  O   UNL     1       6.142   1.619  -4.091  1.00  0.00    -0.252 OA
BRANCH  28  30
ATOM     30  O   UNL     1       7.973   1.033  -2.965  1.00  0.00    -0.481 OA
ATOM     31  H   UNL     1       8.262   1.002  -3.901  1.00  0.00     0.296 HD
ENDBRANCH  28  30
ENDBRANCH  27  28
ENDBRANCH  26  27
ENDBRANCH  25  26
BRANCH  25  32
ATOM     32  C   UNL     1       3.685   2.838   0.280  1.00  0.00     0.241 C 
BRANCH  32  33
ATOM     33  C   UNL     1       4.883   3.178   1.155  1.00  0.00     0.323 C 
ATOM     34  O   UNL     1       5.798   2.440   1.481  1.00  0.00    -0.250 OA
BRANCH  33  35
ATOM     35  O   UNL     1       4.827   4.441   1.622  1.00  0.00    -0.480 OA
ATOM     36  H   UNL     1       5.624   4.524   2.189  1.00  0.00     0.296 HD
ENDBRANCH  33  35
ENDBRANCH  32  33
ENDBRANCH  25  32
ENDBRANCH  23  25
ENDBRANCH   1  23
TORSDOF 15
