REMARK SMILES CN1CCC(CCNC(=O)N2CCN(C(=O)O[C@H]3CCC[C@@H](OC(=O)N4CCN(C(=O)NCc5ccc(NC(=N)N)cc5)CC4)CCC3)CC2)CC1
REMARK SMILES IDX 47 1 48 2 18 3 17 5 15 6 8 7 9 8 10 9 11 10 12 11 50 12
REMARK SMILES IDX 13 13 49 14 14 15 16 16 7 18 6 19 5 20 2 21 3 22 52 23 4 24
REMARK SMILES IDX 51 25 1 26 46 27 22 28 23 29 24 30 25 31 26 32 27 33 45 34
REMARK SMILES IDX 28 35 44 36 29 37 30 38 31 39 32 40 33 42 34 43 35 44 43 45
REMARK SMILES IDX 36 46 42 47 37 48 38 49 39 50 40 51 41 52 21 57 20 58 19 59
REMARK H PARENT 8 17 32 41 38 53 40 54 41 55 41 56
REMARK Flexibility Score:  486.900
ROOT
ATOM      1  C   UNL     1       0.759  -2.512   2.673  1.00  0.00     0.008 C 
ENDROOT
BRANCH   1   2
ATOM      2  C   UNL     1      -0.565  -1.762   2.591  1.00  0.00     0.045 C 
BRANCH   2   3
ATOM      3  C   UNL     1      -0.974  -1.159   1.240  1.00  0.00     0.178 CG0
ATOM      4  G   UNL     1      -0.748  -2.094   0.043  1.00  0.00     0.000 G0
BRANCH   3   5
ATOM      5  O   UNL     1      -2.395  -0.892   1.366  1.00  0.00    -0.446 OA
BRANCH   5   6
ATOM      6  C   UNL     1      -2.903   0.092   0.575  1.00  0.00     0.410 C 
ATOM      7  N   UNL     1      -9.176   0.475  -0.348  1.00  0.00    -0.338 N 
ATOM      8  C   UNL     1      -8.547   0.301   0.861  1.00  0.00     0.317 C 
ATOM      9  O   UNL     1      -9.164   0.145   1.910  1.00  0.00    -0.249 OA
ATOM     10  N   UNL     1      -7.166   0.320   0.795  1.00  0.00    -0.321 N 
ATOM     11  C   UNL     1      -6.398   0.778  -0.372  1.00  0.00     0.143 C 
ATOM     12  C   UNL     1      -6.411   0.075   2.026  1.00  0.00     0.143 C 
ATOM     13  C   UNL     1      -4.985   1.256  -0.017  1.00  0.00     0.144 C 
ATOM     14  C   UNL     1      -5.019  -0.505   1.754  1.00  0.00     0.144 C 
ATOM     15  N   UNL     1      -4.255   0.271   0.775  1.00  0.00    -0.305 N 
ATOM     16  O   UNL     1      -2.239   0.736  -0.227  1.00  0.00    -0.224 OA
ATOM     17  H   UNL     1      -8.687   0.044  -1.117  1.00  0.00     0.165 HD
BRANCH   7  18
ATOM     18  C   UNL     1     -10.625   0.417  -0.414  1.00  0.00     0.118 C 
BRANCH  18  19
ATOM     19  C   UNL     1     -11.126   0.887  -1.778  1.00  0.00     0.025 C 
BRANCH  19  20
ATOM     20  C   UNL     1     -12.653   0.889  -1.965  1.00  0.00    -0.007 C 
ATOM     21  N   UNL     1     -15.481   0.505  -1.160  1.00  0.00    -0.306 NA
ATOM     22  C   UNL     1     -14.796  -0.452  -2.037  1.00  0.00     0.084 C 
ATOM     23  C   UNL     1     -14.885   1.843  -1.256  1.00  0.00     0.084 C 
ATOM     24  C   UNL     1     -13.277  -0.507  -1.836  1.00  0.00     0.019 C 
ATOM     25  C   UNL     1     -13.370   1.871  -1.027  1.00  0.00     0.019 C 
ATOM     26  C   UNL     1     -15.564   0.033   0.220  1.00  0.00     0.105 C 
ENDBRANCH  19  20
ENDBRANCH  18  19
ENDBRANCH   7  18
ENDBRANCH   5   6
ENDBRANCH   3   5
ENDBRANCH   2   3
ENDBRANCH   1   2
BRANCH   1  27
ATOM     27  C   UNL     1       2.024  -1.702   2.410  1.00  0.00     0.045 C 
BRANCH  27  28
ATOM     28  C   UNL     1       2.213  -1.086   1.017  1.00  0.00     0.178 C 
BRANCH  28  29
ATOM     29  O   UNL     1       3.624  -0.754   0.945  1.00  0.00    -0.446 OA
BRANCH  29  30
ATOM     30  C   UNL     1       3.974   0.238   0.082  1.00  0.00     0.410 C 
ATOM     31  O   UNL     1       3.172   0.839  -0.622  1.00  0.00    -0.224 OA
ATOM     32  N   UNL     1       5.335   0.490   0.093  1.00  0.00    -0.305 N 
ATOM     33  C   UNL     1       6.286  -0.427   0.739  1.00  0.00     0.144 C 
ATOM     34  C   UNL     1       5.879   1.351  -0.967  1.00  0.00     0.144 C 
ATOM     35  C   UNL     1       7.608   0.268   1.106  1.00  0.00     0.143 C 
ATOM     36  C   UNL     1       7.204   2.005  -0.555  1.00  0.00     0.143 C 
ATOM     37  N   UNL     1       8.141   0.999  -0.049  1.00  0.00    -0.321 N 
ATOM     38  C   UNL     1       8.991   0.408  -0.975  1.00  0.00     0.317 C 
ATOM     39  O   UNL     1       8.995   0.709  -2.165  1.00  0.00    -0.249 OA
ATOM     40  N   UNL     1       9.823  -0.542  -0.444  1.00  0.00    -0.334 N 
ATOM     41  H   UNL     1      10.123  -0.338   0.497  1.00  0.00     0.165 HD
BRANCH  40  42
ATOM     42  C   UNL     1      10.813  -1.203  -1.268  1.00  0.00     0.153 C 
BRANCH  42  43
ATOM     43  C   UNL     1      12.150  -0.512  -1.176  1.00  0.00    -0.029 A 
ATOM     44  C   UNL     1      12.430   0.601  -1.976  1.00  0.00     0.008 A 
ATOM     45  C   UNL     1      13.118  -0.942  -0.261  1.00  0.00     0.008 A 
ATOM     46  C   UNL     1      13.660   1.258  -1.874  1.00  0.00     0.026 A 
ATOM     47  C   UNL     1      14.348  -0.283  -0.163  1.00  0.00     0.026 A 
ATOM     48  C   UNL     1      14.639   0.823  -0.970  1.00  0.00     0.041 A 
BRANCH  48  49
ATOM     49  N   UNL     1      15.864   1.523  -0.921  1.00  0.00    -0.327 N 
ATOM     50  C   UNL     1      17.030   1.091  -0.378  1.00  0.00     0.190 C 
ATOM     51  N   UNL     1      17.493  -0.108  -0.316  1.00  0.00    -0.269 NA
ATOM     52  N   UNL     1      17.800   2.092   0.104  1.00  0.00    -0.370 N 
ATOM     53  H   UNL     1      15.699   2.515  -0.799  1.00  0.00     0.170 HD
ATOM     54  H   UNL     1      16.826  -0.726  -0.788  1.00  0.00     0.191 HD
ATOM     55  H   UNL     1      17.982   2.817  -0.579  1.00  0.00     0.159 HD
ATOM     56  H   UNL     1      18.687   1.692   0.404  1.00  0.00     0.159 HD
ENDBRANCH  48  49
ENDBRANCH  42  43
ENDBRANCH  40  42
ENDBRANCH  29  30
ENDBRANCH  28  29
BRANCH  28  57
ATOM     57  C   UNL     1       1.864  -2.036  -0.139  1.00  0.00     0.045 C 
BRANCH  57  58
ATOM     58  C   UNL     1       0.500  -1.774  -0.785  1.00  0.00     0.008 C 
BRANCH  58  59
ATOM     59  C   UNL     1      -0.748  -2.094   0.043  1.00  0.00     0.045 CG0
ATOM     60  G   UNL     1      -0.974  -1.159   1.240  1.00  0.00     0.000 G0
ENDBRANCH  58  59
ENDBRANCH  57  58
ENDBRANCH  28  57
ENDBRANCH  27  28
ENDBRANCH   1  27
TORSDOF 10
