REMARK SMILES O=C1c2c(c(C(F)(F)F)nn2-c2cc3ccccc3cc2F)CCN1C1CCN(N2CCOCC2=O)CC1
REMARK SMILES IDX 1 1 2 2 3 3 4 4 5 5 10 6 11 7 23 8 24 9 25 10 26 11 27 12
REMARK SMILES IDX 38 13 28 14 37 15 29 16 30 17 31 18 35 19 32 20 34 21 36 22
REMARK SMILES IDX 33 23 12 24 13 25 21 26 14 27 20 28 15 29 19 30 16 31 18 32
REMARK SMILES IDX 17 33 22 34 6 35 7 36 8 37 9 38
REMARK H PARENT
ROOT
ATOM      1  O   UNL     1      -1.032  -0.509   0.896  1.00  0.00    -0.267 OA
ATOM      2  C   UNL     1      -0.986   0.681   0.602  1.00  0.00     0.273 C 
ATOM      3  C   UNL     1      -2.160   1.488   0.363  1.00  0.00     0.136 A 
ATOM      4  C   UNL     1      -2.164   2.869   0.363  1.00  0.00     0.018 A 
ATOM      5  C   UNL     1      -3.523   3.255   0.355  1.00  0.00     0.170 A 
ATOM      6  N   UNL     1      -4.314   2.164   0.324  1.00  0.00    -0.162 NA
ATOM      7  N   UNL     1      -3.467   1.100   0.169  1.00  0.00    -0.224 N 
ATOM      8  C   UNL     1      -0.906   3.646   0.449  1.00  0.00     0.062 C 
ATOM      9  C   UNL     1       0.254   2.757  -0.040  1.00  0.00     0.125 C 
ATOM     10  N   UNL     1       0.234   1.402   0.557  1.00  0.00    -0.334 N 
ENDROOT
BRANCH  10  11
ATOM     11  C   UNL     1       1.479   0.613   0.604  1.00  0.00     0.088 C 
ATOM     12  C   UNL     1       2.631   1.311   1.336  1.00  0.00     0.043 C 
ATOM     13  C   UNL     1       1.924   0.167  -0.795  1.00  0.00     0.043 C 
ATOM     14  C   UNL     1       3.863   0.406   1.374  1.00  0.00     0.110 C 
ATOM     15  C   UNL     1       3.186  -0.691  -0.712  1.00  0.00     0.110 C 
ATOM     16  N   UNL     1       4.243   0.011   0.017  1.00  0.00    -0.218 NA
BRANCH  16  17
ATOM     17  N   UNL     1       5.506  -0.632  -0.072  1.00  0.00    -0.271 N 
ATOM     18  C   UNL     1       5.778  -1.830   0.722  1.00  0.00     0.168 C 
ATOM     19  C   UNL     1       6.559   0.101  -0.641  1.00  0.00     0.262 C 
ATOM     20  C   UNL     1       6.951  -2.610   0.148  1.00  0.00     0.184 C 
ATOM     21  C   UNL     1       7.909  -0.642  -0.685  1.00  0.00     0.261 C 
ATOM     22  O   UNL     1       6.442   1.222  -1.140  1.00  0.00    -0.271 OA
ATOM     23  O   UNL     1       8.106  -1.773   0.153  1.00  0.00    -0.370 OA
ENDBRANCH  16  17
ENDBRANCH  10  11
BRANCH   7  24
ATOM     24  C   UNL     1      -4.011  -0.156  -0.192  1.00  0.00     0.102 A 
ATOM     25  C   UNL     1      -5.326  -0.471   0.185  1.00  0.00     0.040 A 
ATOM     26  C   UNL     1      -3.294  -1.060  -0.972  1.00  0.00     0.149 A 
ATOM     27  C   UNL     1      -5.896  -1.709  -0.159  1.00  0.00    -0.016 A 
ATOM     28  C   UNL     1      -3.843  -2.292  -1.322  1.00  0.00     0.050 A 
ATOM     29  C   UNL     1      -7.201  -2.047   0.233  1.00  0.00     0.009 A 
ATOM     30  C   UNL     1      -5.140  -2.636  -0.915  1.00  0.00    -0.015 A 
ATOM     31  C   UNL     1      -7.752  -3.282  -0.113  1.00  0.00     0.001 A 
ATOM     32  C   UNL     1      -5.710  -3.873  -1.256  1.00  0.00     0.009 A 
ATOM     33  C   UNL     1      -7.008  -4.193  -0.856  1.00  0.00     0.001 A 
ATOM     34  F   UNL     1      -2.106  -0.736  -1.504  1.00  0.00    -0.205 F 
ENDBRANCH   7  24
BRANCH   5  35
ATOM     35  C   UNL     1      -4.061   4.662   0.407  1.00  0.00     0.435 C 
ATOM     36  F   UNL     1      -3.886   5.305  -0.779  1.00  0.00    -0.164 F 
ATOM     37  F   UNL     1      -3.411   5.409   1.343  1.00  0.00    -0.164 F 
ATOM     38  F   UNL     1      -5.385   4.733   0.704  1.00  0.00    -0.164 F 
ENDBRANCH   5  35
TORSDOF 4
