REMARK SMILES Cc1ccc(NC(=O)CCc2ccccc2)c(=O)n1CC(=O)NCC1CCN(C(=N)N)CC1
REMARK SMILES IDX 1 1 2 2 3 3 4 4 5 5 17 6 18 7 19 8 20 9 21 10 22 11 23 12
REMARK SMILES IDX 24 14 25 15 26 16 33 17 27 18 32 19 28 20 29 21 30 22 31 23
REMARK SMILES IDX 6 27 7 28 8 29 9 31 10 32 11 33 12 34 16 35 13 36 15 37
REMARK SMILES IDX 14 38
REMARK H PARENT 23 13 30 24 31 25 31 26 6 30
ROOT
ATOM      1  C   UNL     1      -0.479  -2.655   4.999  1.00  0.00     0.064 C 
ATOM      2  C   UNL     1      -0.848  -1.363   4.320  1.00  0.00     0.019 C 
ATOM      3  C   UNL     1      -2.046  -0.797   4.547  1.00  0.00     0.024 C 
ATOM      4  C   UNL     1      -2.436   0.429   3.900  1.00  0.00     0.034 C 
ATOM      5  C   UNL     1      -1.631   1.038   3.022  1.00  0.00     0.107 C 
ATOM      6  C   UNL     1      -0.284   0.417   2.747  1.00  0.00     0.274 C 
ATOM      7  O   UNL     1       0.453   0.938   1.904  1.00  0.00    -0.267 OA
ATOM      8  N   UNL     1       0.047  -0.749   3.440  1.00  0.00    -0.302 N 
ENDROOT
BRANCH   8   9
ATOM      9  C   UNL     1       1.375  -1.318   3.177  1.00  0.00     0.225 C 
BRANCH   9  10
ATOM     10  C   UNL     1       1.391  -2.242   1.955  1.00  0.00     0.240 C 
ATOM     11  O   UNL     1       1.849  -3.382   2.006  1.00  0.00    -0.273 OA
ATOM     12  N   UNL     1       0.948  -1.661   0.787  1.00  0.00    -0.354 N 
ATOM     13  H   UNL     1       0.762  -0.659   0.798  1.00  0.00     0.163 HD
BRANCH  12  14
ATOM     14  C   UNL     1       0.987  -2.337  -0.491  1.00  0.00     0.119 C 
BRANCH  14  15
ATOM     15  C   UNL     1       2.371  -2.263  -1.159  1.00  0.00     0.012 C 
ATOM     16  C   UNL     1       2.812  -0.804  -1.390  1.00  0.00     0.027 C 
ATOM     17  C   UNL     1       2.381  -3.067  -2.467  1.00  0.00     0.027 C 
ATOM     18  C   UNL     1       3.325  -0.563  -2.808  1.00  0.00     0.120 C 
ATOM     19  C   UNL     1       1.749  -2.302  -3.629  1.00  0.00     0.120 C 
ATOM     20  N   UNL     1       2.276  -0.930  -3.760  1.00  0.00    -0.343 N 
ATOM     21  C   UNL     1       1.970  -0.234  -4.896  1.00  0.00     0.188 C 
ATOM     22  N   UNL     1       1.244  -0.723  -5.843  1.00  0.00    -0.269 NA
ATOM     23  N   UNL     1       2.437   1.028  -4.983  1.00  0.00    -0.370 N 
ATOM     24  H   UNL     1       1.161  -0.048  -6.602  1.00  0.00     0.191 HD
ATOM     25  H   UNL     1       2.398   1.529  -4.106  1.00  0.00     0.159 HD
ATOM     26  H   UNL     1       2.029   1.582  -5.723  1.00  0.00     0.159 HD
ENDBRANCH  14  15
ENDBRANCH  12  14
ENDBRANCH   9  10
ENDBRANCH   8   9
BRANCH   5  27
ATOM     27  N   UNL     1      -1.908   2.185   2.306  1.00  0.00    -0.321 N 
ATOM     28  C   UNL     1      -3.057   2.944   2.306  1.00  0.00     0.224 C 
ATOM     29  O   UNL     1      -4.055   2.740   2.991  1.00  0.00    -0.275 OA
ATOM     30  H   UNL     1      -1.173   2.436   1.645  1.00  0.00     0.170 HD
BRANCH  28  31
ATOM     31  C   UNL     1      -3.011   4.094   1.318  1.00  0.00     0.105 C 
BRANCH  31  32
ATOM     32  C   UNL     1      -3.544   3.670  -0.048  1.00  0.00     0.045 C 
BRANCH  32  33
ATOM     33  C   UNL     1      -2.605   2.761  -0.804  1.00  0.00    -0.048 A 
ATOM     34  C   UNL     1      -2.860   1.384  -0.879  1.00  0.00     0.004 A 
ATOM     35  C   UNL     1      -1.459   3.275  -1.425  1.00  0.00     0.004 A 
ATOM     36  C   UNL     1      -1.987   0.541  -1.567  1.00  0.00     0.000 A 
ATOM     37  C   UNL     1      -0.593   2.430  -2.118  1.00  0.00     0.000 A 
ATOM     38  C   UNL     1      -0.860   1.065  -2.197  1.00  0.00     0.000 A 
ENDBRANCH  32  33
ENDBRANCH  31  32
ENDBRANCH  28  31
ENDBRANCH   5  27
TORSDOF 8
