REMARK SMILES N=C(N)c1ccc2[nH]c(-c3cc(Br)ccc3O)nc2c1
REMARK SMILES IDX 4 1 5 2 6 3 7 4 8 5 9 6 18 7 19 8 20 9 2 11 1 12 3 13 10 17
REMARK SMILES IDX 11 18 16 19 12 20 15 21 14 22 13 23 17 24
REMARK H PARENT 8 10 1 14 3 15 3 16 17 25
ROOT
ATOM      1  C   UNL     1       3.224  -0.555  -0.072  1.00  0.00     0.018 A 
ATOM      2  C   UNL     1       3.153   0.115  -1.303  1.00  0.00     0.014 A 
ATOM      3  C   UNL     1       1.934   0.590  -1.805  1.00  0.00     0.029 A 
ATOM      4  C   UNL     1       0.804   0.359  -1.020  1.00  0.00     0.066 A 
ATOM      5  N   UNL     1      -0.520   0.671  -1.194  1.00  0.00    -0.338 N 
ATOM      6  C   UNL     1      -1.234   0.209  -0.110  1.00  0.00     0.142 A 
ATOM      7  N   UNL     1      -0.416  -0.387   0.745  1.00  0.00    -0.228 NA
ATOM      8  C   UNL     1       0.841  -0.307   0.198  1.00  0.00     0.090 A 
ATOM      9  C   UNL     1       2.065  -0.781   0.688  1.00  0.00     0.042 A 
ATOM     10  H   UNL     1      -0.902   1.158  -1.989  1.00  0.00     0.168 HD
ENDROOT
BRANCH   1  11
ATOM     11  C   UNL     1       4.535  -1.047   0.446  1.00  0.00     0.122 C 
ATOM     12  N   UNL     1       4.556  -1.996   1.323  1.00  0.00    -0.284 NA
ATOM     13  N   UNL     1       5.706  -0.493   0.013  1.00  0.00    -0.384 N 
ATOM     14  H   UNL     1       5.520  -2.242   1.552  1.00  0.00     0.189 HD
ATOM     15  H   UNL     1       6.506  -0.650   0.614  1.00  0.00     0.158 HD
ATOM     16  H   UNL     1       5.650   0.479  -0.274  1.00  0.00     0.158 HD
ENDBRANCH   1  11
BRANCH   6  17
ATOM     17  C   UNL     1      -2.685   0.351   0.080  1.00  0.00     0.060 A 
ATOM     18  C   UNL     1      -3.500   0.995  -0.865  1.00  0.00     0.031 A 
ATOM     19  C   UNL     1      -3.302  -0.164   1.236  1.00  0.00     0.126 A 
ATOM     20  C   UNL     1      -4.878   1.112  -0.649  1.00  0.00     0.018 A 
ATOM     21  C   UNL     1      -4.676  -0.045   1.448  1.00  0.00     0.048 A 
ATOM     22  C   UNL     1      -5.469   0.596   0.501  1.00  0.00     0.019 A 
ATOM     23  Br  UNL     1      -5.951   1.984  -1.940  1.00  0.00    -0.051 Br
BRANCH  19  24
ATOM     24  O   UNL     1      -2.599  -0.810   2.221  1.00  0.00    -0.507 OA
ATOM     25  H   UNL     1      -1.654  -0.829   1.943  1.00  0.00     0.293 HD
ENDBRANCH  19  24
ENDBRANCH   6  17
TORSDOF 3
