REMARK SMILES CC(Cc1cc(C(=O)Oc2ccc(C(=N)N)cc2)cs1)C(=O)N[C@@H](CC(=O)O)C(=O)O
REMARK SMILES IDX 1 1 2 2 3 3 4 4 5 5 20 6 6 7 19 8 7 9 8 10 9 11 10 12 11 13
REMARK SMILES IDX 18 14 12 15 17 16 13 17 14 18 15 19 16 20 21 24 22 25 23 26
REMARK SMILES IDX 24 28 25 29 26 30 27 31 28 32 29 34 30 35 31 36
REMARK H PARENT 15 21 16 22 16 23 23 27 28 33 31 37
ROOT
ATOM      1  C   UNL     1      -2.266  -0.779  -0.481  1.00  0.00     0.018 C 
ATOM      2  C   UNL     1      -2.784   0.252   0.525  1.00  0.00     0.080 C 
ENDROOT
BRANCH   2   3
ATOM      3  C   UNL     1      -1.745   0.577   1.611  1.00  0.00     0.059 C 
BRANCH   3   4
ATOM      4  C   UNL     1      -0.541   1.308   1.081  1.00  0.00     0.006 A 
ATOM      5  C   UNL     1       0.721   0.804   0.832  1.00  0.00     0.031 A 
ATOM      6  S   UNL     1      -0.625   2.980   0.733  1.00  0.00    -0.148 S 
ATOM      7  C   UNL     1       1.635   1.794   0.333  1.00  0.00     0.071 A 
ATOM      8  C   UNL     1       1.007   3.023   0.234  1.00  0.00     0.080 A 
BRANCH   7   9
ATOM      9  C   UNL     1       3.038   1.598  -0.033  1.00  0.00     0.344 C 
ATOM     10  O   UNL     1       3.749   2.504  -0.453  1.00  0.00    -0.246 OA
BRANCH   9  11
ATOM     11  O   UNL     1       3.439   0.276   0.153  1.00  0.00    -0.423 OA
BRANCH  11  12
ATOM     12  C   UNL     1       4.775   0.027  -0.171  1.00  0.00     0.131 A 
ATOM     13  C   UNL     1       5.796   0.449   0.681  1.00  0.00     0.048 A 
ATOM     14  C   UNL     1       5.046  -0.717  -1.318  1.00  0.00     0.048 A 
ATOM     15  C   UNL     1       7.121   0.151   0.358  1.00  0.00     0.016 A 
ATOM     16  C   UNL     1       6.370  -1.019  -1.637  1.00  0.00     0.016 A 
ATOM     17  C   UNL     1       7.406  -0.582  -0.801  1.00  0.00     0.016 A 
BRANCH  17  18
ATOM     18  C   UNL     1       8.813  -0.905  -1.151  1.00  0.00     0.122 C 
ATOM     19  N   UNL     1       9.164  -2.087  -1.547  1.00  0.00    -0.284 NA
ATOM     20  N   UNL     1       9.784   0.041  -1.065  1.00  0.00    -0.384 N 
ATOM     21  H   UNL     1       8.363  -2.726  -1.551  1.00  0.00     0.189 HD
ATOM     22  H   UNL     1       9.664   0.832  -0.448  1.00  0.00     0.158 HD
ATOM     23  H   UNL     1      10.722  -0.345  -1.097  1.00  0.00     0.158 HD
ENDBRANCH  17  18
ENDBRANCH  11  12
ENDBRANCH   9  11
ENDBRANCH   7   9
ENDBRANCH   3   4
ENDBRANCH   2   3
BRANCH   2  24
ATOM     24  C   UNL     1      -4.055  -0.277   1.183  1.00  0.00     0.223 C 
ATOM     25  O   UNL     1      -4.083  -0.726   2.324  1.00  0.00    -0.275 OA
ATOM     26  N   UNL     1      -5.171  -0.222   0.373  1.00  0.00    -0.342 N 
ATOM     27  H   UNL     1      -4.998  -0.184  -0.625  1.00  0.00     0.164 HD
BRANCH  26  28
ATOM     28  C   UNL     1      -6.421  -0.879   0.784  1.00  0.00     0.203 C 
BRANCH  28  29
ATOM     29  C   UNL     1      -7.628  -0.145   0.214  1.00  0.00     0.159 C 
BRANCH  29  30
ATOM     30  C   UNL     1      -8.033   0.960   1.139  1.00  0.00     0.306 C 
ATOM     31  O   UNL     1      -8.389   0.839   2.298  1.00  0.00    -0.252 OA
BRANCH  30  32
ATOM     32  O   UNL     1      -7.987   2.172   0.556  1.00  0.00    -0.481 OA
ATOM     33  H   UNL     1      -8.270   2.789   1.265  1.00  0.00     0.296 HD
ENDBRANCH  30  32
ENDBRANCH  29  30
ENDBRANCH  28  29
BRANCH  28  34
ATOM     34  C   UNL     1      -6.466  -2.331   0.303  1.00  0.00     0.326 C 
ATOM     35  O   UNL     1      -7.333  -3.150   0.567  1.00  0.00    -0.250 OA
BRANCH  34  36
ATOM     36  O   UNL     1      -5.471  -2.663  -0.551  1.00  0.00    -0.480 OA
ATOM     37  H   UNL     1      -5.637  -3.612  -0.738  1.00  0.00     0.296 HD
ENDBRANCH  34  36
ENDBRANCH  28  34
ENDBRANCH  26  28
ENDBRANCH   2  24
TORSDOF 13
