REMARK SMILES CCc1nc2cc(OC3CCN(C(C)=N)CC3)ccc2n1Cc1ccc(-c2ccc(C(=N)N)cc2)cc1
REMARK SMILES IDX 22 1 21 2 3 3 4 4 5 5 20 6 6 7 19 8 7 9 18 10 2 11 1 12 8 13
REMARK SMILES IDX 9 14 10 15 17 16 11 17 16 18 12 19 13 20 15 21 14 22 23 24
REMARK SMILES IDX 24 25 37 26 25 27 36 28 26 29 27 30 28 31 35 32 29 33 34 34
REMARK SMILES IDX 30 35 31 36 32 37 33 38
REMARK H PARENT 15 23 32 39 33 40 33 41
ROOT
ATOM      1  C   UNL     1      -1.331   3.075   0.186  1.00  0.00     0.159 C 
ENDROOT
BRANCH   1   2
ATOM      2  N   UNL     1      -0.108   2.374   0.555  1.00  0.00    -0.323 N 
ATOM      3  C   UNL     1       0.267   1.987   1.827  1.00  0.00     0.109 A 
ATOM      4  N   UNL     1       1.456   1.418   1.810  1.00  0.00    -0.233 NA
ATOM      5  C   UNL     1       1.868   1.442   0.504  1.00  0.00     0.092 A 
ATOM      6  C   UNL     1       0.914   2.042  -0.309  1.00  0.00     0.069 A 
ATOM      7  C   UNL     1       3.066   0.965  -0.054  1.00  0.00     0.077 A 
ATOM      8  C   UNL     1       1.101   2.198  -1.686  1.00  0.00     0.032 A 
ATOM      9  C   UNL     1       3.277   1.096  -1.427  1.00  0.00     0.122 A 
ATOM     10  C   UNL     1       2.302   1.714  -2.219  1.00  0.00     0.049 A 
BRANCH   3  11
ATOM     11  C   UNL     1      -0.554   2.187   3.059  1.00  0.00     0.072 C 
ATOM     12  C   UNL     1      -0.203   3.492   3.756  1.00  0.00     0.012 C 
ENDBRANCH   3  11
BRANCH   9  13
ATOM     13  O   UNL     1       4.380   0.696  -2.123  1.00  0.00    -0.490 OA
BRANCH  13  14
ATOM     14  C   UNL     1       5.387  -0.156  -1.567  1.00  0.00     0.176 C 
ATOM     15  C   UNL     1       4.884  -1.537  -1.139  1.00  0.00     0.066 C 
ATOM     16  C   UNL     1       6.285   0.533  -0.532  1.00  0.00     0.066 C 
ATOM     17  C   UNL     1       6.056  -2.437  -0.749  1.00  0.00     0.121 C 
ATOM     18  C   UNL     1       6.708  -0.437   0.566  1.00  0.00     0.121 C 
ATOM     19  N   UNL     1       7.116  -1.707  -0.035  1.00  0.00    -0.361 N 
ATOM     20  C   UNL     1       8.344  -2.297   0.216  1.00  0.00     0.093 C 
ATOM     21  N   UNL     1       9.408  -1.656   0.569  1.00  0.00    -0.289 NA
ATOM     22  C   UNL     1       8.507  -3.796   0.046  1.00  0.00     0.086 C 
ATOM     23  H   UNL     1       9.228  -0.655   0.597  1.00  0.00     0.189 HD
ENDBRANCH  13  14
ENDBRANCH   9  13
ENDBRANCH   1   2
BRANCH   1  24
ATOM     24  C   UNL     1      -2.534   2.166   0.095  1.00  0.00    -0.028 A 
ATOM     25  C   UNL     1      -3.744   2.552   0.689  1.00  0.00     0.006 A 
ATOM     26  C   UNL     1      -2.500   0.961  -0.620  1.00  0.00     0.006 A 
ATOM     27  C   UNL     1      -4.879   1.740   0.595  1.00  0.00     0.009 A 
ATOM     28  C   UNL     1      -3.638   0.152  -0.713  1.00  0.00     0.009 A 
ATOM     29  C   UNL     1      -4.846   0.526  -0.106  1.00  0.00    -0.018 A 
BRANCH  29  30
ATOM     30  C   UNL     1      -6.041  -0.328  -0.203  1.00  0.00    -0.018 A 
ATOM     31  C   UNL     1      -6.719  -0.756   0.951  1.00  0.00     0.009 A 
ATOM     32  C   UNL     1      -6.535  -0.739  -1.453  1.00  0.00     0.009 A 
ATOM     33  C   UNL     1      -7.854  -1.570   0.863  1.00  0.00     0.012 A 
ATOM     34  C   UNL     1      -7.671  -1.549  -1.548  1.00  0.00     0.012 A 
ATOM     35  C   UNL     1      -8.330  -1.964  -0.388  1.00  0.00     0.016 A 
BRANCH  35  36
ATOM     36  C   UNL     1      -9.535  -2.826  -0.497  1.00  0.00     0.122 C 
ATOM     37  N   UNL     1     -10.464  -2.598  -1.371  1.00  0.00    -0.284 NA
ATOM     38  N   UNL     1      -9.704  -3.894   0.326  1.00  0.00    -0.384 N 
ATOM     39  H   UNL     1     -10.252  -1.759  -1.920  1.00  0.00     0.189 HD
ATOM     40  H   UNL     1      -9.254  -3.905   1.230  1.00  0.00     0.158 HD
ATOM     41  H   UNL     1     -10.652  -4.254   0.315  1.00  0.00     0.158 HD
ENDBRANCH  35  36
ENDBRANCH  29  30
ENDBRANCH   1  24
TORSDOF 7
