REMARK SMILES N=C(N)c1ccc(OCC[C@H]2CCCCN2C(=O)[C@@H](CC2CCCCC2)NCC(=O)O)cc1
REMARK SMILES IDX 11 1 12 2 13 3 14 4 15 5 16 6 10 7 9 8 8 9 7 10 4 11 5 12
REMARK SMILES IDX 33 13 6 14 32 15 2 16 1 17 3 18 17 22 18 23 19 24 20 25
REMARK SMILES IDX 21 26 22 27 26 28 23 29 25 30 24 31 27 32 28 34 29 35 30 36
REMARK SMILES IDX 31 37
REMARK H PARENT 1 19 3 20 3 21 27 33 31 38
ROOT
ATOM      1  C   UNL     1       0.859   1.196  -0.271  1.00  0.00     0.088 C 
ATOM      2  C   UNL     1       1.684   0.958  -1.553  1.00  0.00     0.025 C 
ATOM      3  C   UNL     1       0.765   0.681  -2.740  1.00  0.00     0.004 C 
ATOM      4  C   UNL     1      -0.151  -0.520  -2.482  1.00  0.00     0.022 C 
ATOM      5  C   UNL     1      -0.202  -0.925  -1.008  1.00  0.00     0.120 C 
ATOM      6  N   UNL     1      -0.276   0.259  -0.153  1.00  0.00    -0.338 N 
ENDROOT
BRANCH   1   7
ATOM      7  C   UNL     1       1.738   1.266   0.999  1.00  0.00     0.066 C 
BRANCH   7   8
ATOM      8  C   UNL     1       2.234  -0.073   1.550  1.00  0.00     0.231 C 
BRANCH   8   9
ATOM      9  O   UNL     1       3.163  -0.719   0.682  1.00  0.00    -0.494 OA
BRANCH   9  10
ATOM     10  C   UNL     1       4.490  -0.408   0.779  1.00  0.00     0.119 A 
ATOM     11  C   UNL     1       7.261   0.020   0.750  1.00  0.00     0.016 A 
ATOM     12  C   UNL     1       6.438   0.790   1.577  1.00  0.00     0.016 A 
ATOM     13  C   UNL     1       6.702  -0.965  -0.065  1.00  0.00     0.016 A 
ATOM     14  C   UNL     1       5.055   0.575   1.591  1.00  0.00     0.047 A 
ATOM     15  C   UNL     1       5.320  -1.171  -0.049  1.00  0.00     0.047 A 
BRANCH  11  16
ATOM     16  C   UNL     1       8.728   0.256   0.746  1.00  0.00     0.122 C 
ATOM     17  N   UNL     1       9.229   1.450   0.734  1.00  0.00    -0.284 NA
ATOM     18  N   UNL     1       9.601  -0.785   0.754  1.00  0.00    -0.384 N 
ATOM     19  H   UNL     1       8.489   2.159   0.702  1.00  0.00     0.189 HD
ATOM     20  H   UNL     1       9.313  -1.681   0.386  1.00  0.00     0.158 HD
ATOM     21  H   UNL     1      10.546  -0.508   0.513  1.00  0.00     0.158 HD
ENDBRANCH  11  16
ENDBRANCH   9  10
ENDBRANCH   8   9
ENDBRANCH   7   8
ENDBRANCH   1   7
BRANCH   6  22
ATOM     22  C   UNL     1      -1.328   0.597   0.690  1.00  0.00     0.239 C 
ATOM     23  O   UNL     1      -1.290   1.635   1.364  1.00  0.00    -0.273 OA
BRANCH  22  24
ATOM     24  C   UNL     1      -2.590  -0.301   0.815  1.00  0.00     0.144 C 
BRANCH  24  25
ATOM     25  C   UNL     1      -3.457  -0.320  -0.461  1.00  0.00     0.032 C 
BRANCH  25  26
ATOM     26  C   UNL     1      -3.787   1.073  -1.053  1.00  0.00    -0.009 C 
ATOM     27  C   UNL     1      -4.542   0.934  -2.390  1.00  0.00     0.004 C 
ATOM     28  C   UNL     1      -4.588   1.977  -0.101  1.00  0.00     0.004 C 
ATOM     29  C   UNL     1      -5.989   0.474  -2.218  1.00  0.00     0.000 C 
ATOM     30  C   UNL     1      -6.030   1.511   0.090  1.00  0.00     0.000 C 
ATOM     31  C   UNL     1      -6.754   1.367  -1.245  1.00  0.00     0.000 C 
ENDBRANCH  25  26
ENDBRANCH  24  25
BRANCH  24  32
ATOM     32  N   UNL     1      -2.192  -1.646   1.297  1.00  0.00    -0.296 NA
ATOM     33  H   UNL     1      -1.575  -1.531   2.108  1.00  0.00     0.124 HD
BRANCH  32  34
ATOM     34  C   UNL     1      -3.345  -2.462   1.720  1.00  0.00     0.205 C 
BRANCH  34  35
ATOM     35  C   UNL     1      -2.868  -3.644   2.555  1.00  0.00     0.317 C 
ATOM     36  O   UNL     1      -1.803  -3.744   3.145  1.00  0.00    -0.251 OA
BRANCH  35  37
ATOM     37  O   UNL     1      -3.795  -4.619   2.648  1.00  0.00    -0.480 OA
ATOM     38  H   UNL     1      -3.365  -5.297   3.212  1.00  0.00     0.296 HD
ENDBRANCH  35  37
ENDBRANCH  34  35
ENDBRANCH  32  34
ENDBRANCH  24  32
ENDBRANCH  22  24
ENDBRANCH   6  22
TORSDOF 13
