REMARK SMILES CCC1CCN(C(=O)C(Cc2nc3ccccc3s2)NS(=O)(=O)c2cccc3c2NCC(C)(C)C3)CC1
REMARK SMILES IDX 9 1 7 2 3 3 4 4 37 5 5 6 36 7 6 8 8 9 2 10 1 11 10 12 11 13
REMARK SMILES IDX 12 14 19 15 13 16 18 17 14 18 17 19 15 20 16 21 20 22 21 24
REMARK SMILES IDX 22 25 23 26 24 27 25 28 29 29 26 30 28 31 30 32 27 33 35 34
REMARK SMILES IDX 31 35 32 36 33 38 34 39
REMARK H PARENT 20 23 30 37
ROOT
ATOM      1  C   UNL     1      -0.994  -2.017   0.800  1.00  0.00     0.166 C 
ENDROOT
BRANCH   1   2
ATOM      2  C   UNL     1      -1.593  -1.154   1.930  1.00  0.00     0.241 C 
ATOM      3  C   UNL     1      -2.430   3.038   1.260  1.00  0.00    -0.008 C 
ATOM      4  C   UNL     1      -2.046   2.355   2.587  1.00  0.00     0.025 C 
ATOM      5  C   UNL     1      -2.764   2.007   0.164  1.00  0.00     0.025 C 
ATOM      6  C   UNL     1      -2.616   0.945   2.693  1.00  0.00     0.120 C 
ATOM      7  C   UNL     1      -1.949   0.726   0.303  1.00  0.00     0.120 C 
ATOM      8  N   UNL     1      -2.105   0.097   1.614  1.00  0.00    -0.341 N 
ATOM      9  O   UNL     1      -1.621  -1.603   3.082  1.00  0.00    -0.273 OA
BRANCH   3  10
ATOM     10  C   UNL     1      -1.336   4.013   0.784  1.00  0.00     0.000 C 
ATOM     11  C   UNL     1      -1.061   5.139   1.771  1.00  0.00     0.004 C 
ENDBRANCH   3  10
ENDBRANCH   1   2
BRANCH   1  12
ATOM     12  C   UNL     1      -2.119  -2.861   0.196  1.00  0.00     0.097 C 
BRANCH  12  13
ATOM     13  C   UNL     1      -1.706  -3.563  -1.062  1.00  0.00     0.096 A 
ATOM     14  N   UNL     1      -1.556  -4.866  -1.159  1.00  0.00    -0.241 NA
ATOM     15  S   UNL     1      -1.462  -2.679  -2.516  1.00  0.00    -0.119 S 
ATOM     16  C   UNL     1      -1.166  -5.204  -2.444  1.00  0.00     0.082 A 
ATOM     17  C   UNL     1      -1.061  -4.137  -3.338  1.00  0.00     0.055 A 
ATOM     18  C   UNL     1      -0.883  -6.506  -2.906  1.00  0.00     0.030 A 
ATOM     19  C   UNL     1      -0.683  -4.326  -4.678  1.00  0.00     0.021 A 
ATOM     20  C   UNL     1      -0.505  -6.705  -4.238  1.00  0.00     0.002 A 
ATOM     21  C   UNL     1      -0.407  -5.626  -5.111  1.00  0.00     0.002 A 
ENDBRANCH  12  13
ENDBRANCH   1  12
BRANCH   1  22
ATOM     22  N   UNL     1       0.018  -2.884   1.453  1.00  0.00    -0.198 NA
ATOM     23  H   UNL     1      -0.210  -3.164   2.412  1.00  0.00     0.142 HD
BRANCH  22  24
ATOM     24  S   UNL     1       1.642  -2.574   1.213  1.00  0.00     0.243 S 
ATOM     25  O   UNL     1       1.921  -2.762  -0.196  1.00  0.00    -0.207 OA
ATOM     26  O   UNL     1       2.359  -3.322   2.222  1.00  0.00    -0.207 OA
BRANCH  24  27
ATOM     27  C   UNL     1       1.819  -0.842   1.600  1.00  0.00     0.105 A 
ATOM     28  C   UNL     1       1.726  -0.495   2.958  1.00  0.00     0.024 A 
ATOM     29  C   UNL     1       2.128   0.122   0.617  1.00  0.00     0.058 A 
ATOM     30  C   UNL     1       1.912   0.824   3.354  1.00  0.00     0.002 A 
ATOM     31  C   UNL     1       2.313   1.456   1.040  1.00  0.00    -0.023 A 
ATOM     32  N   UNL     1       2.102  -0.160  -0.761  1.00  0.00    -0.383 N 
ATOM     33  C   UNL     1       2.210   1.792   2.402  1.00  0.00     0.006 A 
ATOM     34  C   UNL     1       2.717   2.544   0.067  1.00  0.00     0.046 C 
ATOM     35  C   UNL     1       2.948   0.686  -1.595  1.00  0.00     0.119 C 
ATOM     36  C   UNL     1       2.582   2.167  -1.423  1.00  0.00    -0.014 C 
ATOM     37  H   UNL     1       2.248  -1.162  -0.956  1.00  0.00     0.160 HD
ATOM     38  C   UNL     1       1.154   2.442  -1.931  1.00  0.00     0.013 C 
ATOM     39  C   UNL     1       3.552   3.027  -2.254  1.00  0.00     0.013 C 
ENDBRANCH  24  27
ENDBRANCH  22  24
ENDBRANCH   1  22
TORSDOF 7
