REMARK SMILES CNC(=O)C(=O)C(NC(=O)[C@@H]1CC[C@H]2CN(S(=O)(=O)Cc3ccccc3)CC(=O)N21)[C@H]1CC[C@H](N)CC1
REMARK SMILES IDX 8 1 9 2 10 3 7 5 5 6 6 7 3 8 2 9 4 10 1 11 31 13 37 14 32 15
REMARK SMILES IDX 36 16 33 17 34 18 35 19 11 22 12 23 30 24 13 25 28 26 14 27
REMARK SMILES IDX 27 28 29 29 15 30 16 31 17 32 18 33 19 34 20 35 21 36 22 37
REMARK SMILES IDX 26 38 23 39 25 40 24 41
REMARK H PARENT 8 4 2 12 35 20 35 21
ROOT
ATOM      1  N   UNL     1      -1.844  -0.683  -0.309  1.00  0.00    -0.344 N 
ATOM      2  C   UNL     1      -0.749  -0.059  -0.868  1.00  0.00     0.243 C 
ATOM      3  O   UNL     1      -0.788   0.480  -1.970  1.00  0.00    -0.273 OA
ATOM      4  H   UNL     1      -1.764  -1.099   0.621  1.00  0.00     0.164 HD
ENDROOT
BRANCH   1   5
ATOM      5  C   UNL     1      -3.125  -0.801  -1.007  1.00  0.00     0.162 C 
BRANCH   5   6
ATOM      6  C   UNL     1      -3.911  -2.079  -0.672  1.00  0.00     0.242 C 
ATOM      7  O   UNL     1      -4.887  -2.475  -1.308  1.00  0.00    -0.286 OA
BRANCH   6   8
ATOM      8  C   UNL     1      -3.511  -2.884   0.572  1.00  0.00     0.289 C 
ATOM      9  N   UNL     1      -4.100  -4.128   0.628  1.00  0.00    -0.353 N 
ATOM     10  O   UNL     1      -2.757  -2.416   1.413  1.00  0.00    -0.266 OA
ATOM     11  C   UNL     1      -3.974  -4.987   1.774  1.00  0.00     0.143 C 
ATOM     12  H   UNL     1      -4.815  -4.318  -0.072  1.00  0.00     0.163 HD
ENDBRANCH   6   8
ENDBRANCH   5   6
BRANCH   5  13
ATOM     13  C   UNL     1      -3.966   0.486  -0.791  1.00  0.00     0.020 C 
ATOM     14  C   UNL     1      -5.165   0.608  -1.760  1.00  0.00     0.008 C 
ATOM     15  C   UNL     1      -4.376   0.692   0.682  1.00  0.00     0.008 C 
ATOM     16  C   UNL     1      -6.515   0.468  -1.061  1.00  0.00     0.019 C 
ATOM     17  C   UNL     1      -5.392   1.824   0.799  1.00  0.00     0.019 C 
ATOM     18  C   UNL     1      -6.706   1.482   0.077  1.00  0.00     0.050 C 
BRANCH  18  19
ATOM     19  N   UNL     1      -7.332   2.708  -0.419  1.00  0.00    -0.328 NA
ATOM     20  H   UNL     1      -7.409   3.389   0.336  1.00  0.00     0.119 HD
ATOM     21  H   UNL     1      -6.741   3.139  -1.130  1.00  0.00     0.119 HD
ENDBRANCH  18  19
ENDBRANCH   5  13
ENDBRANCH   1   5
BRANCH   2  22
ATOM     22  C   UNL     1       0.481  -0.023   0.061  1.00  0.00     0.174 C 
ATOM     23  C   UNL     1       0.342   1.149   1.043  1.00  0.00     0.037 C 
ATOM     24  N   UNL     1       1.708   0.263  -0.665  1.00  0.00    -0.325 N 
ATOM     25  C   UNL     1       1.751   1.733   1.138  1.00  0.00     0.029 C 
ATOM     26  C   UNL     1       2.306  -0.629  -1.522  1.00  0.00     0.238 C 
ATOM     27  C   UNL     1       2.315   1.519  -0.264  1.00  0.00     0.101 C 
ATOM     28  C   UNL     1       3.598  -0.176  -2.196  1.00  0.00     0.202 C 
ATOM     29  O   UNL     1       1.835  -1.749  -1.726  1.00  0.00    -0.273 OA
ATOM     30  C   UNL     1       3.843   1.448  -0.304  1.00  0.00     0.128 C 
ATOM     31  N   UNL     1       4.246   1.051  -1.670  1.00  0.00    -0.190 NA
BRANCH  31  32
ATOM     32  S   UNL     1       5.768   1.446  -2.243  1.00  0.00     0.218 S 
ATOM     33  O   UNL     1       6.136   2.730  -1.683  1.00  0.00    -0.212 OA
ATOM     34  O   UNL     1       5.720   1.275  -3.683  1.00  0.00    -0.212 OA
BRANCH  32  35
ATOM     35  C   UNL     1       6.897   0.184  -1.620  1.00  0.00     0.189 C 
BRANCH  35  36
ATOM     36  C   UNL     1       6.822   0.010  -0.127  1.00  0.00    -0.032 A 
ATOM     37  C   UNL     1       6.324  -1.184   0.420  1.00  0.00     0.005 A 
ATOM     38  C   UNL     1       7.282   1.009   0.744  1.00  0.00     0.005 A 
ATOM     39  C   UNL     1       6.261  -1.359   1.803  1.00  0.00     0.000 A 
ATOM     40  C   UNL     1       7.216   0.831   2.127  1.00  0.00     0.000 A 
ATOM     41  C   UNL     1       6.703  -0.351   2.656  1.00  0.00     0.000 A 
ENDBRANCH  35  36
ENDBRANCH  32  35
ENDBRANCH  31  32
ENDBRANCH   2  22
TORSDOF 9
