REMARK SMILES COc1cc(CNc2ccc(C(=N)N)cc2)ccc1OCc1ccccc1
REMARK SMILES IDX 6 1 5 2 3 3 4 4 19 5 18 6 17 7 2 8 1 9 20 10 21 11 22 12
REMARK SMILES IDX 23 13 27 14 24 15 26 16 25 17 7 18 8 20 9 21 16 22 10 23
REMARK SMILES IDX 15 24 11 25 12 26 13 27 14 28
REMARK H PARENT 7 19 13 29 14 30 14 31
ROOT
ATOM      1  C   UNL     1       1.791  -0.177  -1.173  1.00  0.00     0.149 C 
ENDROOT
BRANCH   1   2
ATOM      2  C   UNL     1       0.324  -0.100  -0.819  1.00  0.00    -0.025 A 
ATOM      3  C   UNL     1      -1.656   1.209  -0.262  1.00  0.00     0.161 A 
ATOM      4  C   UNL     1      -0.300   1.139  -0.605  1.00  0.00     0.056 A 
ATOM      5  C   UNL     1      -2.404   0.022  -0.130  1.00  0.00     0.161 A 
ATOM      6  C   UNL     1      -1.780  -1.213  -0.331  1.00  0.00     0.051 A 
ATOM      7  C   UNL     1      -0.427  -1.272  -0.671  1.00  0.00     0.009 A 
BRANCH   3   8
ATOM      8  O   UNL     1      -2.342   2.379  -0.045  1.00  0.00    -0.493 OA
ATOM      9  C   UNL     1      -1.611   3.595  -0.097  1.00  0.00     0.278 C 
ENDBRANCH   3   8
BRANCH   5  10
ATOM     10  O   UNL     1      -3.724   0.178   0.214  1.00  0.00    -0.485 OA
BRANCH  10  11
ATOM     11  C   UNL     1      -4.562  -0.974   0.171  1.00  0.00     0.265 C 
BRANCH  11  12
ATOM     12  C   UNL     1      -6.002  -0.582   0.422  1.00  0.00    -0.011 A 
ATOM     13  C   UNL     1      -6.519   0.632  -0.054  1.00  0.00     0.007 A 
ATOM     14  C   UNL     1      -6.865  -1.468   1.085  1.00  0.00     0.007 A 
ATOM     15  C   UNL     1      -7.860   0.963   0.149  1.00  0.00     0.000 A 
ATOM     16  C   UNL     1      -8.207  -1.136   1.287  1.00  0.00     0.000 A 
ATOM     17  C   UNL     1      -8.703   0.080   0.820  1.00  0.00     0.000 A 
ENDBRANCH  11  12
ENDBRANCH  10  11
ENDBRANCH   5  10
ENDBRANCH   1   2
BRANCH   1  18
ATOM     18  N   UNL     1       2.536  -0.647  -0.014  1.00  0.00    -0.381 N 
ATOM     19  H   UNL     1       2.168  -0.280   0.861  1.00  0.00     0.160 HD
BRANCH  18  20
ATOM     20  C   UNL     1       3.932  -0.667  -0.039  1.00  0.00     0.034 A 
ATOM     21  C   UNL     1       4.619  -0.799   1.177  1.00  0.00     0.026 A 
ATOM     22  C   UNL     1       4.686  -0.700  -1.219  1.00  0.00     0.026 A 
ATOM     23  C   UNL     1       6.014  -0.893   1.222  1.00  0.00     0.014 A 
ATOM     24  C   UNL     1       6.083  -0.795  -1.186  1.00  0.00     0.014 A 
ATOM     25  C   UNL     1       6.748  -0.889   0.037  1.00  0.00     0.016 A 
BRANCH  25  26
ATOM     26  C   UNL     1       8.231  -0.982   0.090  1.00  0.00     0.122 C 
ATOM     27  N   UNL     1       8.928  -1.603  -0.808  1.00  0.00    -0.284 NA
ATOM     28  N   UNL     1       8.919  -0.392   1.107  1.00  0.00    -0.384 N 
ATOM     29  H   UNL     1       8.322  -2.054  -1.499  1.00  0.00     0.189 HD
ATOM     30  H   UNL     1       8.554   0.496   1.430  1.00  0.00     0.158 HD
ATOM     31  H   UNL     1       9.911  -0.351   0.894  1.00  0.00     0.158 HD
ENDBRANCH  25  26
ENDBRANCH  18  20
ENDBRANCH   1  18
TORSDOF 8
