REMARK SMILES Cc1cnc(NCCc2ccccc2)c(=O)n1CC(=O)NCc1ccccn1
REMARK SMILES IDX 1 1 2 2 3 3 4 4 5 5 6 6 15 7 16 8 17 9 18 11 19 12 20 13
REMARK SMILES IDX 21 14 22 16 23 17 24 18 28 19 25 20 27 21 26 22 7 23 8 24
REMARK SMILES IDX 9 25 10 26 14 27 11 28 13 29 12 30
REMARK H PARENT 6 10 21 15
ROOT
ATOM      1  C   UNL     1       0.668  -3.474   2.412  1.00  0.00     0.066 C 
ATOM      2  C   UNL     1      -0.131  -2.578   1.508  1.00  0.00     0.037 C 
ATOM      3  C   UNL     1      -1.449  -2.399   1.711  1.00  0.00     0.135 C 
ATOM      4  N   UNL     1      -2.282  -1.609   0.966  1.00  0.00    -0.232 NA
ATOM      5  C   UNL     1      -1.751  -0.939  -0.018  1.00  0.00     0.192 C 
ATOM      6  N   UNL     1      -2.497  -0.109  -0.839  1.00  0.00    -0.365 N 
ATOM      7  C   UNL     1      -0.238  -1.031  -0.333  1.00  0.00     0.293 C 
ATOM      8  O   UNL     1       0.209  -0.335  -1.240  1.00  0.00    -0.265 OA
ATOM      9  N   UNL     1       0.491  -1.913   0.458  1.00  0.00    -0.299 N 
ATOM     10  H   UNL     1      -1.912   0.506  -1.404  1.00  0.00     0.162 HD
ENDROOT
BRANCH   9  11
ATOM     11  C   UNL     1       1.923  -1.994   0.200  1.00  0.00     0.225 C 
BRANCH  11  12
ATOM     12  C   UNL     1       2.718  -0.935   0.973  1.00  0.00     0.240 C 
ATOM     13  O   UNL     1       2.291  -0.334   1.956  1.00  0.00    -0.273 OA
ATOM     14  N   UNL     1       3.999  -0.760   0.507  1.00  0.00    -0.349 N 
ATOM     15  H   UNL     1       4.291  -1.134  -0.392  1.00  0.00     0.163 HD
BRANCH  14  16
ATOM     16  C   UNL     1       4.873   0.250   1.061  1.00  0.00     0.172 C 
BRANCH  16  17
ATOM     17  C   UNL     1       6.210   0.279   0.352  1.00  0.00     0.060 A 
ATOM     18  C   UNL     1       7.240   1.074   0.851  1.00  0.00     0.026 A 
ATOM     19  N   UNL     1       6.344  -0.467  -0.781  1.00  0.00    -0.259 NA
ATOM     20  C   UNL     1       8.455   1.100   0.173  1.00  0.00     0.004 A 
ATOM     21  C   UNL     1       7.537  -0.418  -1.415  1.00  0.00     0.111 A 
ATOM     22  C   UNL     1       8.610   0.341  -0.981  1.00  0.00     0.020 A 
ENDBRANCH  16  17
ENDBRANCH  14  16
ENDBRANCH  11  12
ENDBRANCH   9  11
BRANCH   6  23
ATOM     23  C   UNL     1      -3.764   0.451  -0.402  1.00  0.00     0.119 C 
BRANCH  23  24
ATOM     24  C   UNL     1      -4.449   1.170  -1.568  1.00  0.00     0.056 C 
BRANCH  24  25
ATOM     25  C   UNL     1      -5.762   1.790  -1.158  1.00  0.00    -0.046 A 
ATOM     26  C   UNL     1      -5.812   3.115  -0.704  1.00  0.00     0.004 A 
ATOM     27  C   UNL     1      -6.944   1.038  -1.198  1.00  0.00     0.004 A 
ATOM     28  C   UNL     1      -7.025   3.679  -0.306  1.00  0.00     0.000 A 
ATOM     29  C   UNL     1      -8.155   1.605  -0.800  1.00  0.00     0.000 A 
ATOM     30  C   UNL     1      -8.196   2.925  -0.355  1.00  0.00     0.000 A 
ENDBRANCH  24  25
ENDBRANCH  23  24
ENDBRANCH   6  23
TORSDOF 7
