REMARK SMILES Cn1c(CN2CCN(S(=O)(=O)c3cc4ccc(Cl)cc4s3)CC2=O)cc2cnccc21
REMARK SMILES IDX 5 1 6 2 7 3 8 4 22 5 23 6 24 7 4 8 3 9 2 10 31 11 25 12
REMARK SMILES IDX 30 13 26 14 29 15 27 16 28 17 1 18 9 19 10 20 11 21 12 22
REMARK SMILES IDX 13 23 21 24 14 25 20 26 15 27 19 28 16 29 17 30 18 31
REMARK H PARENT
ROOT
ATOM      1  N   UNL     1      -1.123  -0.307  -0.682  1.00  0.00    -0.334 N 
ATOM      2  C   UNL     1      -0.847   1.131  -0.654  1.00  0.00     0.136 C 
ATOM      3  C   UNL     1       0.628   1.434  -0.400  1.00  0.00     0.124 C 
ATOM      4  N   UNL     1       1.004   0.806   0.879  1.00  0.00    -0.186 NA
ATOM      5  C   UNL     1       0.788  -0.656   0.894  1.00  0.00     0.202 C 
ATOM      6  C   UNL     1      -0.425  -1.187   0.135  1.00  0.00     0.238 C 
ATOM      7  O   UNL     1      -0.724  -2.381   0.222  1.00  0.00    -0.273 OA
ENDROOT
BRANCH   1   8
ATOM      8  C   UNL     1      -2.306  -0.767  -1.399  1.00  0.00     0.173 C 
BRANCH   8   9
ATOM      9  C   UNL     1      -3.544  -0.195  -0.785  1.00  0.00     0.038 A 
ATOM     10  N   UNL     1      -4.163  -0.697   0.345  1.00  0.00    -0.346 N 
ATOM     11  C   UNL     1      -5.256   0.084   0.676  1.00  0.00     0.051 A 
ATOM     12  C   UNL     1      -4.295   0.888  -1.208  1.00  0.00     0.035 A 
ATOM     13  C   UNL     1      -6.165   0.012   1.736  1.00  0.00     0.047 A 
ATOM     14  C   UNL     1      -5.364   1.080  -0.296  1.00  0.00     0.018 A 
ATOM     15  C   UNL     1      -7.161   0.978   1.739  1.00  0.00     0.113 A 
ATOM     16  C   UNL     1      -6.409   2.008  -0.205  1.00  0.00     0.121 A 
ATOM     17  N   UNL     1      -7.301   1.949   0.813  1.00  0.00    -0.264 NA
ATOM     18  C   UNL     1      -3.736  -1.864   1.090  1.00  0.00     0.150 C 
ENDBRANCH   8   9
ENDBRANCH   1   8
BRANCH   4  19
ATOM     19  S   UNL     1       2.396   1.360   1.657  1.00  0.00     0.253 S 
ATOM     20  O   UNL     1       2.488   0.669   2.926  1.00  0.00    -0.206 OA
ATOM     21  O   UNL     1       2.428   2.803   1.579  1.00  0.00    -0.206 OA
BRANCH  19  22
ATOM     22  C   UNL     1       3.823   0.783   0.757  1.00  0.00     0.136 A 
ATOM     23  C   UNL     1       4.717  -0.235   1.021  1.00  0.00     0.042 A 
ATOM     24  S   UNL     1       4.207   1.586  -0.696  1.00  0.00    -0.122 S 
ATOM     25  C   UNL     1       5.730  -0.373   0.018  1.00  0.00    -0.006 A 
ATOM     26  C   UNL     1       5.568   0.575  -0.995  1.00  0.00     0.037 A 
ATOM     27  C   UNL     1       6.811  -1.282  -0.079  1.00  0.00     0.011 A 
ATOM     28  C   UNL     1       6.445   0.640  -2.095  1.00  0.00     0.040 A 
ATOM     29  C   UNL     1       7.685  -1.225  -1.169  1.00  0.00     0.021 A 
ATOM     30  C   UNL     1       7.498  -0.273  -2.161  1.00  0.00     0.042 A 
ATOM     31  Cl  UNL     1       8.583  -0.214  -3.498  1.00  0.00    -0.084 Cl
ENDBRANCH  19  22
ENDBRANCH   4  19
TORSDOF 4
