REMARK SMILES N=C(N)c1ccc2[nH]c(-c3ccccc3)nc2c1
REMARK SMILES IDX 4 1 5 2 6 3 7 4 8 5 9 6 16 7 17 8 18 9 2 11 1 12 3 13 10 17
REMARK SMILES IDX 11 18 15 19 12 20 14 21 13 22
REMARK H PARENT 8 10 1 14 3 15 3 16
ROOT
ATOM      1  C   UNL     1       3.276   0.111   0.022  1.00  0.00     0.018 A 
ATOM      2  C   UNL     1       3.075   1.474  -0.240  1.00  0.00     0.014 A 
ATOM      3  C   UNL     1       1.786   2.000  -0.397  1.00  0.00     0.029 A 
ATOM      4  C   UNL     1       0.727   1.099  -0.272  1.00  0.00     0.066 A 
ATOM      5  N   UNL     1      -0.633   1.252  -0.361  1.00  0.00    -0.338 N 
ATOM      6  C   UNL     1      -1.238   0.032  -0.150  1.00  0.00     0.138 A 
ATOM      7  N   UNL     1      -0.314  -0.890   0.064  1.00  0.00    -0.228 NA
ATOM      8  C   UNL     1       0.898  -0.252  -0.007  1.00  0.00     0.090 A 
ATOM      9  C   UNL     1       2.191  -0.769   0.146  1.00  0.00     0.042 A 
ATOM     10  H   UNL     1      -1.110   2.117  -0.560  1.00  0.00     0.168 HD
ENDROOT
BRANCH   1  11
ATOM     11  C   UNL     1       4.655  -0.420   0.198  1.00  0.00     0.122 C 
ATOM     12  N   UNL     1       5.671   0.039  -0.461  1.00  0.00    -0.284 NA
ATOM     13  N   UNL     1       4.896  -1.423   1.087  1.00  0.00    -0.384 N 
ATOM     14  H   UNL     1       5.385   0.749  -1.140  1.00  0.00     0.189 HD
ATOM     15  H   UNL     1       4.342  -1.415   1.935  1.00  0.00     0.158 HD
ATOM     16  H   UNL     1       5.890  -1.524   1.265  1.00  0.00     0.158 HD
ENDBRANCH   1  11
BRANCH   6  17
ATOM     17  C   UNL     1      -2.688  -0.195  -0.172  1.00  0.00     0.017 A 
ATOM     18  C   UNL     1      -3.620   0.850  -0.273  1.00  0.00     0.012 A 
ATOM     19  C   UNL     1      -3.174  -1.509  -0.087  1.00  0.00     0.012 A 
ATOM     20  C   UNL     1      -4.993   0.584  -0.292  1.00  0.00     0.001 A 
ATOM     21  C   UNL     1      -4.545  -1.776  -0.106  1.00  0.00     0.001 A 
ATOM     22  C   UNL     1      -5.455  -0.728  -0.210  1.00  0.00     0.000 A 
ENDBRANCH   6  17
TORSDOF 2
