REMARK SMILES COc1ccc(-n2nc(C(N)=O)c3c2C(=O)N(C2CCN(N4CCOCC4=O)CC2)CC3)cc1
REMARK SMILES IDX 7 1 8 2 9 3 13 4 14 5 15 6 16 7 17 8 31 9 32 10 6 11 3 12
REMARK SMILES IDX 4 13 34 14 5 15 33 16 2 17 1 18 10 19 11 20 12 21 18 24
REMARK SMILES IDX 19 25 30 26 20 27 29 28 21 29 22 30 23 31 27 32 24 33 26 34
REMARK SMILES IDX 28 35 25 36
REMARK H PARENT 11 22 11 23
ROOT
ATOM      1  N   UNL     1       3.681  -0.556  -0.063  1.00  0.00    -0.227 N 
ATOM      2  N   UNL     1       4.540  -1.560   0.282  1.00  0.00    -0.162 NA
ATOM      3  C   UNL     1       3.858  -2.704   0.137  1.00  0.00     0.154 A 
ATOM      4  C   UNL     1       2.500  -2.420  -0.131  1.00  0.00     0.018 A 
ATOM      5  C   UNL     1       2.386  -1.039  -0.157  1.00  0.00     0.136 A 
ATOM      6  C   UNL     1       1.125  -0.332  -0.211  1.00  0.00     0.273 C 
ATOM      7  O   UNL     1       1.018   0.889  -0.178  1.00  0.00    -0.267 OA
ATOM      8  N   UNL     1      -0.023  -1.167  -0.287  1.00  0.00    -0.334 N 
ATOM      9  C   UNL     1       0.074  -2.549   0.224  1.00  0.00     0.125 C 
ATOM     10  C   UNL     1       1.317  -3.298  -0.274  1.00  0.00     0.062 C 
ENDROOT
BRANCH   1  11
ATOM     11  C   UNL     1       4.235   0.735  -0.311  1.00  0.00     0.066 A 
ATOM     12  C   UNL     1       5.446   3.236  -0.808  1.00  0.00     0.119 A 
ATOM     13  C   UNL     1       6.093   2.292  -0.015  1.00  0.00     0.048 A 
ATOM     14  C   UNL     1       4.207   2.917  -1.366  1.00  0.00     0.048 A 
ATOM     15  C   UNL     1       5.497   1.048   0.225  1.00  0.00     0.032 A 
ATOM     16  C   UNL     1       3.606   1.674  -1.130  1.00  0.00     0.032 A 
BRANCH  12  17
ATOM     17  O   UNL     1       5.914   4.482  -1.124  1.00  0.00    -0.497 OA
ATOM     18  C   UNL     1       7.152   4.867  -0.540  1.00  0.00     0.278 C 
ENDBRANCH  12  17
ENDBRANCH   1  11
BRANCH   3  19
ATOM     19  C   UNL     1       4.519  -4.009   0.291  1.00  0.00     0.269 C 
ATOM     20  N   UNL     1       4.017  -5.021  -0.490  1.00  0.00    -0.364 N 
ATOM     21  O   UNL     1       5.479  -4.228   1.023  1.00  0.00    -0.268 OA
ATOM     22  H   UNL     1       3.526  -4.786  -1.341  1.00  0.00     0.160 HD
ATOM     23  H   UNL     1       4.603  -5.846  -0.514  1.00  0.00     0.160 HD
ENDBRANCH   3  19
BRANCH   8  24
ATOM     24  C   UNL     1      -1.338  -0.487  -0.276  1.00  0.00     0.088 C 
ATOM     25  C   UNL     1      -2.455  -1.286  -0.955  1.00  0.00     0.043 C 
ATOM     26  C   UNL     1      -1.758  -0.038   1.137  1.00  0.00     0.043 C 
ATOM     27  C   UNL     1      -3.732  -0.445  -1.051  1.00  0.00     0.110 C 
ATOM     28  C   UNL     1      -3.276  -0.057   1.346  1.00  0.00     0.110 C 
ATOM     29  N   UNL     1      -3.969   0.372   0.138  1.00  0.00    -0.218 NA
BRANCH  29  30
ATOM     30  N   UNL     1      -5.323   0.748   0.308  1.00  0.00    -0.271 N 
ATOM     31  C   UNL     1      -6.251  -0.160   0.979  1.00  0.00     0.168 C 
ATOM     32  C   UNL     1      -5.646   2.102   0.132  1.00  0.00     0.262 C 
ATOM     33  C   UNL     1      -7.694   0.190   0.645  1.00  0.00     0.184 C 
ATOM     34  C   UNL     1      -7.129   2.447   0.375  1.00  0.00     0.261 C 
ATOM     35  O   UNL     1      -4.857   2.965  -0.256  1.00  0.00    -0.271 OA
ATOM     36  O   UNL     1      -7.953   1.525   1.076  1.00  0.00    -0.370 OA
ENDBRANCH  29  30
ENDBRANCH   8  24
TORSDOF 5
