REMARK SMILES N=C(N)c1ccc(O)c(CN2CC[C@H](NS(=O)(=O)c3cc4cnccc4s3)C2=O)c1
REMARK SMILES IDX 11 1 12 2 13 3 14 4 28 5 29 6 10 7 9 8 4 9 5 10 30 11 6 12
REMARK SMILES IDX 7 13 2 14 1 15 3 16 8 20 15 22 16 24 17 25 18 26 19 27 20 28
REMARK SMILES IDX 27 29 21 30 26 31 22 32 25 33 23 34 24 35
REMARK H PARENT 1 17 3 18 3 19 8 21 15 23
ROOT
ATOM      1  N   UNL     1      -0.640   0.038  -0.375  1.00  0.00    -0.337 N 
ATOM      2  C   UNL     1      -1.322  -0.923  -1.207  1.00  0.00     0.122 C 
ATOM      3  C   UNL     1      -0.299  -1.263  -2.273  1.00  0.00     0.051 C 
ATOM      4  C   UNL     1       1.043  -1.125  -1.560  1.00  0.00     0.161 C 
ATOM      5  C   UNL     1       0.736  -0.162  -0.421  1.00  0.00     0.241 C 
ATOM      6  O   UNL     1       1.557   0.251   0.384  1.00  0.00    -0.273 OA
ENDROOT
BRANCH   1   7
ATOM      7  C   UNL     1      -1.265   0.660   0.782  1.00  0.00     0.159 C 
BRANCH   7   8
ATOM      8  C   UNL     1      -2.633   1.228   0.504  1.00  0.00     0.014 A 
ATOM      9  C   UNL     1      -5.062   1.038   0.651  1.00  0.00     0.017 A 
ATOM     10  C   UNL     1      -5.194   2.270   0.001  1.00  0.00     0.016 A 
ATOM     11  C   UNL     1      -3.784   0.524   0.906  1.00  0.00     0.021 A 
ATOM     12  C   UNL     1      -4.062   2.976  -0.406  1.00  0.00     0.047 A 
ATOM     13  C   UNL     1      -2.795   2.452  -0.156  1.00  0.00     0.120 A 
BRANCH   9  14
ATOM     14  C   UNL     1      -6.288   0.298   1.078  1.00  0.00     0.122 C 
ATOM     15  N   UNL     1      -7.411   0.931   1.172  1.00  0.00    -0.284 NA
ATOM     16  N   UNL     1      -6.236  -1.039   1.356  1.00  0.00    -0.384 N 
ATOM     17  H   UNL     1      -8.142   0.302   1.506  1.00  0.00     0.189 HD
ATOM     18  H   UNL     1      -5.535  -1.568   0.850  1.00  0.00     0.158 HD
ATOM     19  H   UNL     1      -7.128  -1.518   1.354  1.00  0.00     0.158 HD
ENDBRANCH   9  14
BRANCH  13  20
ATOM     20  O   UNL     1      -1.682   3.140  -0.549  1.00  0.00    -0.508 OA
ATOM     21  H   UNL     1      -1.954   3.988  -0.938  1.00  0.00     0.293 HD
ENDBRANCH  13  20
ENDBRANCH   7   8
ENDBRANCH   1   7
BRANCH   4  22
ATOM     22  N   UNL     1       1.453  -2.425  -0.991  1.00  0.00    -0.198 NA
ATOM     23  H   UNL     1       1.178  -2.577  -0.020  1.00  0.00     0.142 HD
BRANCH  22  24
ATOM     24  S   UNL     1       3.055  -2.888  -1.227  1.00  0.00     0.250 S 
ATOM     25  O   UNL     1       3.356  -2.780  -2.636  1.00  0.00    -0.206 OA
ATOM     26  O   UNL     1       3.211  -4.131  -0.503  1.00  0.00    -0.206 OA
BRANCH  24  27
ATOM     27  C   UNL     1       4.107  -1.748  -0.356  1.00  0.00     0.136 A 
ATOM     28  C   UNL     1       4.509  -1.709   0.964  1.00  0.00     0.044 A 
ATOM     29  S   UNL     1       4.766  -0.450  -1.243  1.00  0.00    -0.122 S 
ATOM     30  C   UNL     1       5.366  -0.599   1.263  1.00  0.00     0.012 A 
ATOM     31  C   UNL     1       5.589   0.182   0.129  1.00  0.00     0.039 A 
ATOM     32  C   UNL     1       5.979  -0.208   2.464  1.00  0.00     0.120 A 
ATOM     33  C   UNL     1       6.397   1.324   0.179  1.00  0.00     0.040 A 
ATOM     34  N   UNL     1       6.765   0.891   2.526  1.00  0.00    -0.264 NA
ATOM     35  C   UNL     1       6.953   1.620   1.409  1.00  0.00     0.112 A 
ENDBRANCH  24  27
ENDBRANCH  22  24
ENDBRANCH   4  22
TORSDOF 7
