REMARK SMILES COc1ccc(-n2nnnc2C(=O)Nc2ccc(-c3ccccc3S(N)(=O)=O)cc2)cc1N
REMARK SMILES IDX 15 1 16 2 17 3 18 4 29 5 30 6 14 7 12 8 13 9 11 11 7 12 8 13
REMARK SMILES IDX 9 14 10 15 6 16 3 17 4 18 32 19 5 20 31 21 2 22 1 23 33 24
REMARK SMILES IDX 19 27 20 28 24 29 21 30 23 31 22 32 25 33 27 34 28 35 26 36
REMARK H PARENT 14 10 33 25 33 26 26 37 26 38
ROOT
ATOM      1  C   UNL     1      -1.046   1.494  -0.652  1.00  0.00     0.041 A 
ATOM      2  C   UNL     1      -2.068   2.422  -0.424  1.00  0.00     0.027 A 
ATOM      3  C   UNL     1      -3.400   2.009  -0.315  1.00  0.00     0.011 A 
ATOM      4  C   UNL     1      -3.740   0.656  -0.424  1.00  0.00    -0.017 A 
ATOM      5  C   UNL     1      -2.713  -0.269  -0.656  1.00  0.00     0.011 A 
ATOM      6  C   UNL     1      -1.380   0.145  -0.768  1.00  0.00     0.027 A 
ENDROOT
BRANCH   1   7
ATOM      7  N   UNL     1       0.266   1.996  -0.740  1.00  0.00    -0.319 N 
ATOM      8  C   UNL     1       1.441   1.303  -0.989  1.00  0.00     0.295 C 
ATOM      9  O   UNL     1       1.505   0.103  -1.229  1.00  0.00    -0.265 OA
ATOM     10  H   UNL     1       0.376   3.000  -0.628  1.00  0.00     0.170 HD
BRANCH   8  11
ATOM     11  C   UNL     1       2.595   2.172  -0.978  1.00  0.00     0.245 A 
ATOM     12  N   UNL     1       3.944   1.859  -0.965  1.00  0.00    -0.188 N 
ATOM     13  N   UNL     1       4.623   3.003  -1.253  1.00  0.00    -0.039 NA
ATOM     14  N   UNL     1       3.731   3.978  -1.264  1.00  0.00    -0.023 NA
ATOM     15  N   UNL     1       2.473   3.488  -1.083  1.00  0.00    -0.103 NA
BRANCH  12  16
ATOM     16  C   UNL     1       4.661   0.670  -0.664  1.00  0.00     0.071 A 
ATOM     17  C   UNL     1       6.179  -1.617  -0.027  1.00  0.00     0.141 A 
ATOM     18  C   UNL     1       6.766  -0.557  -0.717  1.00  0.00     0.051 A 
ATOM     19  C   UNL     1       4.816  -1.548   0.323  1.00  0.00     0.076 A 
ATOM     20  C   UNL     1       6.013   0.580  -1.032  1.00  0.00     0.032 A 
ATOM     21  C   UNL     1       4.082  -0.385   0.046  1.00  0.00     0.058 A 
BRANCH  17  22
ATOM     22  O   UNL     1       6.820  -2.778   0.335  1.00  0.00    -0.495 OA
ATOM     23  C   UNL     1       8.228  -2.821   0.144  1.00  0.00     0.278 C 
ENDBRANCH  17  22
BRANCH  19  24
ATOM     24  N   UNL     1       4.238  -2.544   1.139  1.00  0.00    -0.396 N 
ATOM     25  H   UNL     1       3.246  -2.677   0.973  1.00  0.00     0.156 HD
ATOM     26  H   UNL     1       4.770  -3.410   1.073  1.00  0.00     0.156 HD
ENDBRANCH  19  24
ENDBRANCH  12  16
ENDBRANCH   8  11
ENDBRANCH   1   7
BRANCH   4  27
ATOM     27  C   UNL     1      -5.136   0.216  -0.315  1.00  0.00     0.002 A 
ATOM     28  C   UNL     1      -5.855  -0.030  -1.500  1.00  0.00     0.010 A 
ATOM     29  C   UNL     1      -5.805   0.029   0.912  1.00  0.00     0.090 A 
ATOM     30  C   UNL     1      -7.189  -0.442  -1.469  1.00  0.00     0.001 A 
ATOM     31  C   UNL     1      -7.146  -0.384   0.941  1.00  0.00     0.022 A 
ATOM     32  C   UNL     1      -7.834  -0.618  -0.249  1.00  0.00     0.001 A 
BRANCH  29  33
ATOM     33  S   UNL     1      -4.940   0.304   2.434  1.00  0.00     0.238 S 
ATOM     34  O   UNL     1      -3.851  -0.639   2.540  1.00  0.00    -0.207 OA
ATOM     35  O   UNL     1      -4.784   1.726   2.633  1.00  0.00    -0.207 OA
BRANCH  33  36
ATOM     36  N   UNL     1      -6.017  -0.176   3.640  1.00  0.00    -0.225 NA
ATOM     37  H   UNL     1      -6.223   0.629   4.234  1.00  0.00     0.137 HD
ATOM     38  H   UNL     1      -5.606  -0.960   4.150  1.00  0.00     0.137 HD
ENDBRANCH  33  36
ENDBRANCH  29  33
ENDBRANCH   4  27
TORSDOF 8
