REMARK SMILES Nc1cc[n+](Cc2ccc(OC(c3ccccc3)c3ccccc3)cc2)cc1
REMARK SMILES IDX 7 1 8 2 9 3 10 4 25 5 26 6 6 7 5 8 2 9 3 10 28 11 4 12 27 13
REMARK SMILES IDX 1 14 11 17 12 18 13 19 14 20 18 21 15 22 17 23 16 24 19 25
REMARK SMILES IDX 20 26 24 27 21 28 23 29 22 30
REMARK H PARENT 1 15 1 16
ROOT
ATOM      1  C   UNL     1       2.255  -0.500   1.440  1.00  0.00     0.017 A 
ATOM      2  C   UNL     1       1.939   0.863   1.355  1.00  0.00     0.014 A 
ATOM      3  C   UNL     1       0.647   1.265   1.007  1.00  0.00     0.047 A 
ATOM      4  C   UNL     1      -0.353   0.325   0.752  1.00  0.00     0.120 A 
ATOM      5  C   UNL     1      -0.047  -1.031   0.840  1.00  0.00     0.047 A 
ATOM      6  C   UNL     1       1.246  -1.441   1.186  1.00  0.00     0.014 A 
ENDROOT
BRANCH   1   7
ATOM      7  C   UNL     1       3.649  -0.950   1.791  1.00  0.00     0.393 C 
BRANCH   7   8
ATOM      8  N   UNL     1       4.627  -0.504   0.768  1.00  0.00    -0.201 N 
ATOM      9  C   UNL     1       6.446   0.333  -1.156  1.00  0.00     0.043 A 
ATOM     10  C   UNL     1       6.502   0.827   0.142  1.00  0.00     0.096 A 
ATOM     11  C   UNL     1       5.502  -0.645  -1.445  1.00  0.00     0.096 A 
ATOM     12  C   UNL     1       5.572   0.409   1.088  1.00  0.00     0.310 A 
ATOM     13  C   UNL     1       4.589  -1.040  -0.474  1.00  0.00     0.310 A 
BRANCH   9  14
ATOM     14  N   UNL     1       7.451   0.634  -2.069  1.00  0.00    -0.398 N 
ATOM     15  H   UNL     1       7.234   0.477  -3.050  1.00  0.00     0.156 HD
ATOM     16  H   UNL     1       7.939   1.517  -1.933  1.00  0.00     0.156 HD
ENDBRANCH   9  14
ENDBRANCH   7   8
ENDBRANCH   1   7
BRANCH   4  17
ATOM     17  O   UNL     1      -1.557   0.864   0.403  1.00  0.00    -0.481 OA
BRANCH  17  18
ATOM     18  C   UNL     1      -2.732   0.029   0.407  1.00  0.00     0.234 C 
BRANCH  18  19
ATOM     19  C   UNL     1      -3.938   0.926   0.669  1.00  0.00    -0.003 A 
ATOM     20  C   UNL     1      -4.931   0.525   1.579  1.00  0.00     0.008 A 
ATOM     21  C   UNL     1      -4.100   2.149  -0.004  1.00  0.00     0.008 A 
ATOM     22  C   UNL     1      -6.048   1.330   1.814  1.00  0.00     0.000 A 
ATOM     23  C   UNL     1      -5.218   2.951   0.233  1.00  0.00     0.000 A 
ATOM     24  C   UNL     1      -6.190   2.542   1.142  1.00  0.00     0.000 A 
ENDBRANCH  18  19
BRANCH  18  25
ATOM     25  C   UNL     1      -2.887  -0.760  -0.889  1.00  0.00    -0.003 A 
ATOM     26  C   UNL     1      -3.568  -1.990  -0.879  1.00  0.00     0.008 A 
ATOM     27  C   UNL     1      -2.389  -0.279  -2.111  1.00  0.00     0.008 A 
ATOM     28  C   UNL     1      -3.729  -2.724  -2.056  1.00  0.00     0.000 A 
ATOM     29  C   UNL     1      -2.552  -1.015  -3.286  1.00  0.00     0.000 A 
ATOM     30  C   UNL     1      -3.219  -2.238  -3.257  1.00  0.00     0.000 A 
ENDBRANCH  18  25
ENDBRANCH  17  18
ENDBRANCH   4  17
TORSDOF 7
