REMARK SMILES Cc1nc(N)ccc1CNC(=O)Cn1c(C)ccc(NS(=O)(=O)Cc2ccccc2)c1=O
REMARK SMILES IDX 13 1 11 2 10 3 12 4 9 6 8 7 2 8 3 9 4 10 7 11 6 12 1 13 5 14
REMARK SMILES IDX 14 17 15 18 31 19 17 20 19 21 32 22 18 23 16 24 20 25 21 27
REMARK SMILES IDX 22 28 23 29 24 30 25 31 26 32 30 33 27 34 29 35 28 36
REMARK H PARENT 10 5 5 15 5 16 20 26
ROOT
ATOM      1  C   UNL     1       1.777   1.210  -3.582  1.00  0.00     0.225 C 
ENDROOT
BRANCH   1   2
ATOM      2  C   UNL     1       3.008   0.366  -3.230  1.00  0.00     0.240 C 
ATOM      3  N   UNL     1       3.538   0.661  -1.985  1.00  0.00    -0.350 N 
ATOM      4  O   UNL     1       3.407  -0.555  -3.939  1.00  0.00    -0.273 OA
ATOM      5  H   UNL     1       2.947   1.254  -1.403  1.00  0.00     0.163 HD
BRANCH   3   6
ATOM      6  C   UNL     1       4.306  -0.329  -1.260  1.00  0.00     0.153 C 
BRANCH   6   7
ATOM      7  C   UNL     1       3.379  -1.184  -0.430  1.00  0.00    -0.007 A 
ATOM      8  C   UNL     1       2.940  -0.820   0.849  1.00  0.00     0.045 A 
ATOM      9  N   UNL     1       2.018  -1.540   1.545  1.00  0.00    -0.236 NA
ATOM     10  C   UNL     1       1.531  -2.659   0.985  1.00  0.00     0.123 A 
ATOM     11  C   UNL     1       2.838  -2.349  -0.987  1.00  0.00     0.011 A 
ATOM     12  C   UNL     1       1.915  -3.100  -0.269  1.00  0.00     0.047 A 
ATOM     13  C   UNL     1       3.451   0.409   1.545  1.00  0.00     0.067 C 
BRANCH  10  14
ATOM     14  N   UNL     1       0.613  -3.385   1.739  1.00  0.00    -0.384 N 
ATOM     15  H   UNL     1       0.456  -2.872   2.600  1.00  0.00     0.158 HD
ATOM     16  H   UNL     1      -0.244  -3.544   1.222  1.00  0.00     0.158 HD
ENDBRANCH  10  14
ENDBRANCH   6   7
ENDBRANCH   3   6
ENDBRANCH   1   2
BRANCH   1  17
ATOM     17  N   UNL     1       0.594   0.524  -3.054  1.00  0.00    -0.302 N 
ATOM     18  C   UNL     1      -0.217  -0.291  -3.857  1.00  0.00     0.019 C 
ATOM     19  C   UNL     1       0.383   0.646  -1.673  1.00  0.00     0.275 C 
ATOM     20  C   UNL     1      -1.231  -0.985  -3.303  1.00  0.00     0.024 C 
ATOM     21  C   UNL     1      -0.729  -0.172  -1.106  1.00  0.00     0.114 C 
ATOM     22  O   UNL     1       1.088   1.325  -0.923  1.00  0.00    -0.267 OA
ATOM     23  C   UNL     1      -1.479  -0.954  -1.883  1.00  0.00     0.034 C 
ATOM     24  C   UNL     1       0.044  -0.391  -5.335  1.00  0.00     0.064 C 
BRANCH  21  25
ATOM     25  N   UNL     1      -0.892  -0.272   0.313  1.00  0.00    -0.278 N 
ATOM     26  H   UNL     1      -0.016   0.060   0.745  1.00  0.00     0.180 HD
BRANCH  25  27
ATOM     27  S   UNL     1      -2.154   0.746   0.864  1.00  0.00     0.237 S 
ATOM     28  O   UNL     1      -1.688   2.106   0.701  1.00  0.00    -0.206 OA
ATOM     29  O   UNL     1      -3.387   0.277   0.265  1.00  0.00    -0.206 OA
BRANCH  27  30
ATOM     30  C   UNL     1      -2.141   0.311   2.607  1.00  0.00     0.195 C 
BRANCH  30  31
ATOM     31  C   UNL     1      -3.189   1.113   3.332  1.00  0.00    -0.031 A 
ATOM     32  C   UNL     1      -2.873   2.364   3.882  1.00  0.00     0.005 A 
ATOM     33  C   UNL     1      -4.498   0.628   3.458  1.00  0.00     0.005 A 
ATOM     34  C   UNL     1      -3.846   3.108   4.552  1.00  0.00     0.000 A 
ATOM     35  C   UNL     1      -5.469   1.374   4.128  1.00  0.00     0.000 A 
ATOM     36  C   UNL     1      -5.142   2.613   4.676  1.00  0.00     0.000 A 
ENDBRANCH  30  31
ENDBRANCH  27  30
ENDBRANCH  25  27
ENDBRANCH  21  25
ENDBRANCH   1  17
TORSDOF 9
