REMARK SMILES COc1ccc(-n2nc(C(F)(F)F)cc2C(=O)Nc2ccc(-c3ccccc3S(N)(=O)=O)cc2)c(CN)c1
REMARK SMILES IDX 16 1 17 2 18 3 15 5 7 6 8 7 9 8 14 9 6 10 3 11 4 12 38 13
REMARK SMILES IDX 5 14 35 15 2 16 1 17 36 18 37 19 10 22 11 23 12 24 13 25
REMARK SMILES IDX 19 26 20 27 34 28 21 29 33 30 22 31 23 32 24 33 28 34 25 35
REMARK SMILES IDX 27 36 26 37 29 38 31 39 32 40 30 41
REMARK H PARENT 18 4 37 20 37 21 30 42 30 43
ROOT
ATOM      1  C   UNL     1       1.057   2.287   1.353  1.00  0.00     0.274 C 
ATOM      2  O   UNL     1       0.437   2.553   2.378  1.00  0.00    -0.267 OA
ATOM      3  N   UNL     1       0.499   1.727   0.216  1.00  0.00    -0.321 N 
ATOM      4  H   UNL     1       1.104   1.590  -0.581  1.00  0.00     0.170 HD
ENDROOT
BRANCH   1   5
ATOM      5  C   UNL     1       2.457   2.655   1.235  1.00  0.00     0.133 A 
ATOM      6  N   UNL     1       3.458   2.081   0.472  1.00  0.00    -0.227 N 
ATOM      7  N   UNL     1       4.542   2.895   0.373  1.00  0.00    -0.163 NA
ATOM      8  C   UNL     1       4.354   3.845   1.306  1.00  0.00     0.167 A 
ATOM      9  C   UNL     1       3.069   3.718   1.880  1.00  0.00     0.069 A 
BRANCH   6  10
ATOM     10  C   UNL     1       3.457   0.858  -0.249  1.00  0.00     0.070 A 
ATOM     11  C   UNL     1       3.304  -1.419  -1.886  1.00  0.00     0.119 A 
ATOM     12  C   UNL     1       3.811  -0.225  -2.392  1.00  0.00     0.048 A 
ATOM     13  C   UNL     1       2.937  -1.489  -0.540  1.00  0.00     0.053 A 
ATOM     14  C   UNL     1       3.899   0.907  -1.582  1.00  0.00     0.032 A 
ATOM     15  C   UNL     1       3.027  -0.362   0.309  1.00  0.00    -0.005 A 
BRANCH  11  16
ATOM     16  O   UNL     1       3.245  -2.444  -2.788  1.00  0.00    -0.497 OA
ATOM     17  C   UNL     1       2.560  -3.622  -2.379  1.00  0.00     0.278 C 
ENDBRANCH  11  16
BRANCH  15  18
ATOM     18  C   UNL     1       2.782  -0.580   1.786  1.00  0.00     0.116 C 
BRANCH  18  19
ATOM     19  N   UNL     1       1.374  -0.783   2.074  1.00  0.00    -0.326 NA
ATOM     20  H   UNL     1       1.040  -1.632   1.622  1.00  0.00     0.119 HD
ATOM     21  H   UNL     1       1.246  -0.914   3.076  1.00  0.00     0.119 HD
ENDBRANCH  18  19
ENDBRANCH  15  18
ENDBRANCH   6  10
BRANCH   8  22
ATOM     22  C   UNL     1       5.382   4.900   1.618  1.00  0.00     0.435 C 
ATOM     23  F   UNL     1       6.541   4.369   2.089  1.00  0.00    -0.164 F 
ATOM     24  F   UNL     1       4.942   5.768   2.571  1.00  0.00    -0.164 F 
ATOM     25  F   UNL     1       5.700   5.653   0.532  1.00  0.00    -0.164 F 
ENDBRANCH   8  22
ENDBRANCH   1   5
BRANCH   3  26
ATOM     26  C   UNL     1      -0.802   1.209   0.056  1.00  0.00     0.041 A 
ATOM     27  C   UNL     1      -1.812   1.308   1.011  1.00  0.00     0.027 A 
ATOM     28  C   UNL     1      -1.070   0.534  -1.141  1.00  0.00     0.027 A 
ATOM     29  C   UNL     1      -3.063   0.720   0.784  1.00  0.00     0.011 A 
ATOM     30  C   UNL     1      -2.315  -0.061  -1.364  1.00  0.00     0.011 A 
ATOM     31  C   UNL     1      -3.322   0.007  -0.394  1.00  0.00    -0.017 A 
BRANCH  31  32
ATOM     32  C   UNL     1      -4.619  -0.645  -0.610  1.00  0.00     0.002 A 
ATOM     33  C   UNL     1      -5.652   0.111  -1.198  1.00  0.00     0.010 A 
ATOM     34  C   UNL     1      -4.900  -1.982  -0.262  1.00  0.00     0.090 A 
ATOM     35  C   UNL     1      -6.913  -0.440  -1.435  1.00  0.00     0.001 A 
ATOM     36  C   UNL     1      -6.169  -2.534  -0.504  1.00  0.00     0.022 A 
ATOM     37  C   UNL     1      -7.171  -1.762  -1.089  1.00  0.00     0.001 A 
BRANCH  34  38
ATOM     38  S   UNL     1      -3.675  -3.033   0.480  1.00  0.00     0.238 S 
ATOM     39  O   UNL     1      -4.299  -4.280   0.867  1.00  0.00    -0.207 OA
ATOM     40  O   UNL     1      -2.466  -3.016  -0.309  1.00  0.00    -0.207 OA
BRANCH  38  41
ATOM     41  N   UNL     1      -3.336  -2.268   1.934  1.00  0.00    -0.225 NA
ATOM     42  H   UNL     1      -2.385  -1.898   1.927  1.00  0.00     0.137 HD
ATOM     43  H   UNL     1      -3.553  -2.884   2.716  1.00  0.00     0.137 HD
ENDBRANCH  38  41
ENDBRANCH  34  38
ENDBRANCH  31  32
ENDBRANCH   3  26
TORSDOF 10
