REMARK SMILES CCC(CC)(Cc1ccc(C(=O)Oc2ccc(C(=N)N)cc2F)s1)C(=O)N[C@@H](CCC(=O)O)c1nnn[nH]1
REMARK SMILES IDX 3 1 2 2 1 3 4 4 5 5 6 6 7 7 8 8 24 9 9 10 10 11 11 12 12 13
REMARK SMILES IDX 13 14 14 15 15 16 22 17 16 18 21 19 17 20 23 21 18 22 19 23
REMARK SMILES IDX 20 24 25 28 26 29 27 30 28 32 29 33 30 34 31 35 32 36 33 37
REMARK SMILES IDX 34 39 35 40 38 41 36 42 37 43
REMARK H PARENT 19 25 20 26 20 27 27 31 33 38 38 44
ROOT
ATOM      1  C   UNL     1      -2.163  -1.084   1.146  1.00  0.00     0.053 C 
ENDROOT
BRANCH   1   2
ATOM      2  C   UNL     1      -2.079  -2.302   0.161  1.00  0.00     0.014 C 
ATOM      3  C   UNL     1      -0.846  -3.196   0.245  1.00  0.00     0.005 C 
ENDBRANCH   1   2
BRANCH   1   4
ATOM      4  C   UNL     1      -1.515  -1.441   2.521  1.00  0.00     0.014 C 
ATOM      5  C   UNL     1      -1.498  -0.342   3.585  1.00  0.00     0.005 C 
ENDBRANCH   1   4
BRANCH   1   6
ATOM      6  C   UNL     1      -1.574   0.222   0.530  1.00  0.00     0.063 C 
BRANCH   6   7
ATOM      7  C   UNL     1      -0.155   0.152   0.028  1.00  0.00     0.007 A 
ATOM      8  C   UNL     1       0.270  -0.112  -1.260  1.00  0.00     0.016 A 
ATOM      9  S   UNL     1       1.169   0.517   1.047  1.00  0.00    -0.133 S 
ATOM     10  C   UNL     1       1.689  -0.064  -1.387  1.00  0.00     0.028 A 
ATOM     11  C   UNL     1       2.316   0.262  -0.199  1.00  0.00     0.113 A 
BRANCH  11  12
ATOM     12  C   UNL     1       3.731   0.413   0.094  1.00  0.00     0.353 C 
ATOM     13  O   UNL     1       4.219   0.720   1.177  1.00  0.00    -0.245 OA
BRANCH  12  14
ATOM     14  O   UNL     1       4.467   0.123  -1.055  1.00  0.00    -0.419 OA
BRANCH  14  15
ATOM     15  C   UNL     1       5.836   0.344  -0.894  1.00  0.00     0.166 A 
ATOM     16  C   UNL     1       6.681  -0.752  -0.739  1.00  0.00     0.051 A 
ATOM     17  C   UNL     1       6.348   1.639  -0.957  1.00  0.00     0.166 A 
ATOM     18  C   UNL     1       8.055  -0.536  -0.612  1.00  0.00     0.016 A 
ATOM     19  C   UNL     1       7.713   1.861  -0.835  1.00  0.00     0.055 A 
ATOM     20  C   UNL     1       8.569   0.770  -0.654  1.00  0.00     0.019 A 
ATOM     21  F   UNL     1       5.525   2.679  -1.148  1.00  0.00    -0.203 F 
BRANCH  20  22
ATOM     22  C   UNL     1      10.032   1.004  -0.532  1.00  0.00     0.122 C 
ATOM     23  N   UNL     1      10.797   0.280   0.220  1.00  0.00    -0.284 NA
ATOM     24  N   UNL     1      10.626   2.010  -1.232  1.00  0.00    -0.384 N 
ATOM     25  H   UNL     1      10.258  -0.413   0.747  1.00  0.00     0.189 HD
ATOM     26  H   UNL     1      10.275   2.173  -2.169  1.00  0.00     0.158 HD
ATOM     27  H   UNL     1      11.638   1.918  -1.208  1.00  0.00     0.158 HD
ENDBRANCH  20  22
ENDBRANCH  14  15
ENDBRANCH  12  14
ENDBRANCH  11  12
ENDBRANCH   6   7
ENDBRANCH   1   6
BRANCH   1  28
ATOM     28  C   UNL     1      -3.687  -0.843   1.364  1.00  0.00     0.227 C 
ATOM     29  O   UNL     1      -4.243  -0.919   2.457  1.00  0.00    -0.274 OA
ATOM     30  N   UNL     1      -4.417  -0.557   0.233  1.00  0.00    -0.346 N 
ATOM     31  H   UNL     1      -3.976  -0.538  -0.682  1.00  0.00     0.164 HD
BRANCH  30  32
ATOM     32  C   UNL     1      -5.844  -0.299   0.280  1.00  0.00     0.152 C 
BRANCH  32  33
ATOM     33  C   UNL     1      -6.175   1.110   0.816  1.00  0.00     0.045 C 
BRANCH  33  34
ATOM     34  C   UNL     1      -5.259   2.246   0.354  1.00  0.00     0.125 C 
BRANCH  34  35
ATOM     35  C   UNL     1      -5.112   2.333  -1.136  1.00  0.00     0.303 C 
ATOM     36  O   UNL     1      -4.069   2.208  -1.755  1.00  0.00    -0.252 OA
BRANCH  35  37
ATOM     37  O   UNL     1      -6.284   2.550  -1.760  1.00  0.00    -0.481 OA
ATOM     38  H   UNL     1      -6.065   2.479  -2.715  1.00  0.00     0.296 HD
ENDBRANCH  35  37
ENDBRANCH  34  35
ENDBRANCH  33  34
ENDBRANCH  32  33
BRANCH  32  39
ATOM     39  C   UNL     1      -6.407  -0.546  -1.078  1.00  0.00     0.171 A 
ATOM     40  N   UNL     1      -5.782  -0.560  -2.240  1.00  0.00    -0.112 NA
ATOM     41  N   UNL     1      -7.726  -0.812  -1.312  1.00  0.00    -0.241 N 
ATOM     42  N   UNL     1      -6.741  -0.820  -3.186  1.00  0.00    -0.024 NA
ATOM     43  N   UNL     1      -7.933  -0.970  -2.625  1.00  0.00    -0.048 NA
ATOM     44  H   UNL     1      -8.505  -0.890  -0.670  1.00  0.00     0.194 HD
ENDBRANCH  32  39
ENDBRANCH  30  32
ENDBRANCH   1  28
TORSDOF 15
