REMARK SMILES COc1cc(C(Nc2ccc(C(=N)N)cc2)C(=O)NCc2ccccc2)ccc1OCc1ccccc1
REMARK SMILES IDX 6 1 5 2 3 3 4 4 29 5 28 6 27 7 2 8 1 9 30 10 31 11 32 12
REMARK SMILES IDX 33 13 37 14 34 15 36 16 35 17 7 18 8 20 9 21 16 22 10 23
REMARK SMILES IDX 15 24 11 25 12 26 13 27 14 28 17 32 18 33 19 34 20 36 21 37
REMARK SMILES IDX 22 38 26 39 23 40 25 41 24 42
REMARK H PARENT 7 19 13 29 14 30 14 31 19 35
ROOT
ATOM      1  C   UNL     1      -0.585  -0.211   0.814  1.00  0.00     0.200 C 
ENDROOT
BRANCH   1   2
ATOM      2  C   UNL     1       0.869  -0.196   0.363  1.00  0.00    -0.012 A 
ATOM      3  C   UNL     1       3.210   0.331   0.831  1.00  0.00     0.161 A 
ATOM      4  C   UNL     1       1.864   0.289   1.223  1.00  0.00     0.056 A 
ATOM      5  C   UNL     1       3.580  -0.077  -0.461  1.00  0.00     0.161 A 
ATOM      6  C   UNL     1       2.586  -0.551  -1.326  1.00  0.00     0.051 A 
ATOM      7  C   UNL     1       1.248  -0.610  -0.920  1.00  0.00     0.010 A 
BRANCH   3   8
ATOM      8  O   UNL     1       4.041   0.842   1.797  1.00  0.00    -0.493 OA
ATOM      9  C   UNL     1       5.343   0.270   1.869  1.00  0.00     0.278 C 
ENDBRANCH   3   8
BRANCH   5  10
ATOM     10  O   UNL     1       4.895   0.055  -0.814  1.00  0.00    -0.485 OA
BRANCH  10  11
ATOM     11  C   UNL     1       5.316  -0.472  -2.070  1.00  0.00     0.265 C 
BRANCH  11  12
ATOM     12  C   UNL     1       6.811  -0.295  -2.187  1.00  0.00    -0.011 A 
ATOM     13  C   UNL     1       7.387   0.978  -2.061  1.00  0.00     0.007 A 
ATOM     14  C   UNL     1       7.646  -1.392  -2.447  1.00  0.00     0.007 A 
ATOM     15  C   UNL     1       8.766   1.150  -2.184  1.00  0.00     0.000 A 
ATOM     16  C   UNL     1       9.026  -1.218  -2.570  1.00  0.00     0.000 A 
ATOM     17  C   UNL     1       9.585   0.052  -2.439  1.00  0.00     0.000 A 
ENDBRANCH  11  12
ENDBRANCH  10  11
ENDBRANCH   5  10
ENDBRANCH   1   2
BRANCH   1  18
ATOM     18  N   UNL     1      -1.309   0.862   0.078  1.00  0.00    -0.370 N 
ATOM     19  H   UNL     1      -0.657   1.575  -0.250  1.00  0.00     0.161 HD
BRANCH  18  20
ATOM     20  C   UNL     1      -2.447   1.461   0.637  1.00  0.00     0.035 A 
ATOM     21  C   UNL     1      -2.893   2.670   0.080  1.00  0.00     0.026 A 
ATOM     22  C   UNL     1      -3.260   0.852   1.600  1.00  0.00     0.026 A 
ATOM     23  C   UNL     1      -4.080   3.278   0.507  1.00  0.00     0.014 A 
ATOM     24  C   UNL     1      -4.450   1.450   2.034  1.00  0.00     0.014 A 
ATOM     25  C   UNL     1      -4.859   2.664   1.487  1.00  0.00     0.016 A 
BRANCH  25  26
ATOM     26  C   UNL     1      -6.128   3.298   1.927  1.00  0.00     0.122 C 
ATOM     27  N   UNL     1      -6.957   3.832   1.087  1.00  0.00    -0.284 NA
ATOM     28  N   UNL     1      -6.468   3.335   3.243  1.00  0.00    -0.384 N 
ATOM     29  H   UNL     1      -6.620   3.727   0.125  1.00  0.00     0.189 HD
ATOM     30  H   UNL     1      -7.444   3.571   3.390  1.00  0.00     0.158 HD
ATOM     31  H   UNL     1      -6.104   2.630   3.869  1.00  0.00     0.158 HD
ENDBRANCH  25  26
ENDBRANCH  18  20
ENDBRANCH   1  18
BRANCH   1  32
ATOM     32  C   UNL     1      -1.236  -1.606   0.586  1.00  0.00     0.247 C 
ATOM     33  O   UNL     1      -0.982  -2.584   1.286  1.00  0.00    -0.272 OA
ATOM     34  N   UNL     1      -2.114  -1.645  -0.483  1.00  0.00    -0.350 N 
ATOM     35  H   UNL     1      -2.383  -0.724  -0.823  1.00  0.00     0.163 HD
BRANCH  34  36
ATOM     36  C   UNL     1      -3.037  -2.737  -0.668  1.00  0.00     0.151 C 
BRANCH  36  37
ATOM     37  C   UNL     1      -4.311  -2.492   0.100  1.00  0.00    -0.029 A 
ATOM     38  C   UNL     1      -5.326  -1.687  -0.437  1.00  0.00     0.005 A 
ATOM     39  C   UNL     1      -4.475  -3.018   1.390  1.00  0.00     0.005 A 
ATOM     40  C   UNL     1      -6.487  -1.428   0.294  1.00  0.00     0.000 A 
ATOM     41  C   UNL     1      -5.637  -2.760   2.119  1.00  0.00     0.000 A 
ATOM     42  C   UNL     1      -6.643  -1.967   1.570  1.00  0.00     0.000 A 
ENDBRANCH  36  37
ENDBRANCH  34  36
ENDBRANCH   1  32
TORSDOF 11
