REMARK SMILES COC(=O)[C@H](Cc1cccc(C(=N)N)c1)[C@@H](C)NC(=O)c1ccc(-c2cccc(C(N)=O)c2)cc1
REMARK SMILES IDX 16 1 17 2 5 3 3 4 4 5 2 6 1 7 6 8 7 9 8 10 15 11 9 12 11 13
REMARK SMILES IDX 10 14 12 15 13 16 14 17 18 21 19 22 20 23 21 25 22 26 35 27
REMARK SMILES IDX 23 28 34 29 24 30 25 31 26 32 33 33 27 34 29 35 28 36 30 37
REMARK SMILES IDX 31 38 32 39
REMARK H PARENT 13 18 14 19 14 20 18 24 31 40 31 41
ROOT
ATOM      1  C   UNL     1      -1.861  -2.287  -1.566  1.00  0.00     0.093 C 
ATOM      2  C   UNL     1      -2.455  -2.236  -2.979  1.00  0.00     0.032 C 
ENDROOT
BRANCH   1   3
ATOM      3  C   UNL     1      -2.865  -1.873  -0.460  1.00  0.00     0.125 C 
BRANCH   3   4
ATOM      4  C   UNL     1      -3.988  -2.895  -0.421  1.00  0.00     0.311 C 
ATOM      5  O   UNL     1      -3.883  -3.997   0.106  1.00  0.00    -0.252 OA
BRANCH   4   6
ATOM      6  O   UNL     1      -5.090  -2.482  -1.107  1.00  0.00    -0.469 OA
ATOM      7  C   UNL     1      -6.166  -3.422  -1.102  1.00  0.00     0.282 C 
ENDBRANCH   4   6
ENDBRANCH   3   4
BRANCH   3   8
ATOM      8  C   UNL     1      -3.349  -0.416  -0.591  1.00  0.00     0.053 C 
BRANCH   8   9
ATOM      9  C   UNL     1      -4.074   0.090   0.638  1.00  0.00    -0.046 A 
ATOM     10  C   UNL     1      -5.461   0.290   0.616  1.00  0.00     0.004 A 
ATOM     11  C   UNL     1      -3.367   0.362   1.819  1.00  0.00     0.015 A 
ATOM     12  C   UNL     1      -6.133   0.747   1.751  1.00  0.00     0.001 A 
ATOM     13  C   UNL     1      -4.042   0.824   2.955  1.00  0.00     0.016 A 
ATOM     14  C   UNL     1      -5.425   1.014   2.923  1.00  0.00     0.012 A 
BRANCH  13  15
ATOM     15  C   UNL     1      -3.279   1.118   4.196  1.00  0.00     0.122 C 
ATOM     16  N   UNL     1      -2.158   1.766   4.174  1.00  0.00    -0.284 NA
ATOM     17  N   UNL     1      -3.744   0.719   5.409  1.00  0.00    -0.384 N 
ATOM     18  H   UNL     1      -1.909   2.034   3.217  1.00  0.00     0.189 HD
ATOM     19  H   UNL     1      -4.728   0.541   5.541  1.00  0.00     0.158 HD
ATOM     20  H   UNL     1      -3.269   1.165   6.186  1.00  0.00     0.158 HD
ENDBRANCH  13  15
ENDBRANCH   8   9
ENDBRANCH   3   8
ENDBRANCH   1   3
BRANCH   1  21
ATOM     21  N   UNL     1      -0.639  -1.472  -1.542  1.00  0.00    -0.349 N 
ATOM     22  C   UNL     1       0.275  -1.560  -0.510  1.00  0.00     0.251 C 
ATOM     23  O   UNL     1       0.105  -2.255   0.484  1.00  0.00    -0.269 OA
ATOM     24  H   UNL     1      -0.303  -1.107  -2.424  1.00  0.00     0.164 HD
BRANCH  22  25
ATOM     25  C   UNL     1       1.534  -0.780  -0.673  1.00  0.00     0.039 A 
ATOM     26  C   UNL     1       1.593   0.386  -1.444  1.00  0.00     0.014 A 
ATOM     27  C   UNL     1       2.682  -1.223  -0.009  1.00  0.00     0.014 A 
ATOM     28  C   UNL     1       2.802   1.081  -1.570  1.00  0.00     0.009 A 
ATOM     29  C   UNL     1       3.886  -0.523  -0.139  1.00  0.00     0.009 A 
ATOM     30  C   UNL     1       3.969   0.637  -0.926  1.00  0.00    -0.018 A 
BRANCH  30  31
ATOM     31  C   UNL     1       5.238   1.370  -1.067  1.00  0.00    -0.018 A 
ATOM     32  C   UNL     1       5.762   1.669  -2.336  1.00  0.00     0.009 A 
ATOM     33  C   UNL     1       5.962   1.790   0.061  1.00  0.00     0.022 A 
ATOM     34  C   UNL     1       6.964   2.369  -2.476  1.00  0.00     0.001 A 
ATOM     35  C   UNL     1       7.176   2.479  -0.071  1.00  0.00     0.040 A 
ATOM     36  C   UNL     1       7.670   2.778  -1.345  1.00  0.00     0.014 A 
BRANCH  35  37
ATOM     37  C   UNL     1       7.889   2.894   1.166  1.00  0.00     0.248 C 
ATOM     38  N   UNL     1       9.236   3.117   1.075  1.00  0.00    -0.366 N 
ATOM     39  O   UNL     1       7.310   3.000   2.240  1.00  0.00    -0.270 OA
ATOM     40  H   UNL     1       9.786   2.758   0.308  1.00  0.00     0.159 HD
ATOM     41  H   UNL     1       9.712   3.265   1.956  1.00  0.00     0.159 HD
ENDBRANCH  35  37
ENDBRANCH  30  31
ENDBRANCH  22  25
ENDBRANCH   1  21
TORSDOF 10
