REMARK SMILES NCc1ccc(CNC(=O)CCCC(=O)NCc2ccc(CNC(=O)CCCC(=O)NCc3ccc(CN)cc3)cc2)cc1
REMARK SMILES IDX 18 1 19 2 20 3 21 4 41 5 42 6 17 7 16 8 14 9 15 10 13 12
REMARK SMILES IDX 12 13 11 14 9 15 8 16 10 17 7 19 6 20 3 21 4 22 44 23 5 24
REMARK SMILES IDX 43 25 2 26 1 27 22 30 23 31 24 32 25 33 26 35 27 36 28 37
REMARK SMILES IDX 29 38 30 39 31 40 32 42 33 43 34 44 40 45 35 46 39 47 36 48
REMARK SMILES IDX 37 49 38 50
REMARK H PARENT 16 11 8 18 1 28 1 29 23 34 31 41 38 51 38 52
ROOT
ATOM      1  C   UNL     1       2.150  -0.491  -0.888  1.00  0.00    -0.029 A 
ATOM      2  C   UNL     1       1.216   0.468  -0.475  1.00  0.00     0.006 A 
ATOM      3  C   UNL     1      -0.067   0.491  -1.028  1.00  0.00     0.006 A 
ATOM      4  C   UNL     1      -0.435  -0.434  -2.014  1.00  0.00    -0.029 A 
ATOM      5  C   UNL     1       0.498  -1.394  -2.426  1.00  0.00     0.006 A 
ATOM      6  C   UNL     1       1.780  -1.418  -1.872  1.00  0.00     0.006 A 
ENDROOT
BRANCH   1   7
ATOM      7  C   UNL     1       3.543  -0.510  -0.315  1.00  0.00     0.151 C 
BRANCH   7   8
ATOM      8  N   UNL     1       4.475   0.136  -1.210  1.00  0.00    -0.352 N 
ATOM      9  C   UNL     1       5.290  -0.583  -2.056  1.00  0.00     0.220 C 
ATOM     10  O   UNL     1       5.361  -1.807  -2.053  1.00  0.00    -0.275 OA
ATOM     11  H   UNL     1       4.345   1.123  -1.387  1.00  0.00     0.163 HD
BRANCH   9  12
ATOM     12  C   UNL     1       6.085   0.305  -2.996  1.00  0.00     0.100 C 
BRANCH  12  13
ATOM     13  C   UNL     1       7.094  -0.462  -3.854  1.00  0.00     0.020 C 
BRANCH  13  14
ATOM     14  C   UNL     1       8.286  -1.009  -3.064  1.00  0.00     0.100 C 
BRANCH  14  15
ATOM     15  C   UNL     1       9.231   0.072  -2.570  1.00  0.00     0.220 C 
ATOM     16  N   UNL     1      10.213  -0.421  -1.739  1.00  0.00    -0.352 N 
ATOM     17  O   UNL     1       9.141   1.252  -2.892  1.00  0.00    -0.275 OA
ATOM     18  H   UNL     1      10.107  -1.358  -1.374  1.00  0.00     0.163 HD
BRANCH  16  19
ATOM     19  C   UNL     1      11.142   0.453  -1.059  1.00  0.00     0.151 C 
BRANCH  19  20
ATOM     20  C   UNL     1      10.671   0.747   0.342  1.00  0.00    -0.029 A 
ATOM     21  C   UNL     1       9.745   1.280   2.954  1.00  0.00    -0.034 A 
ATOM     22  C   UNL     1      10.662   0.246   2.717  1.00  0.00     0.005 A 
ATOM     23  C   UNL     1       9.291   2.040   1.869  1.00  0.00     0.005 A 
ATOM     24  C   UNL     1      11.119  -0.020   1.424  1.00  0.00     0.006 A 
ATOM     25  C   UNL     1       9.747   1.773   0.576  1.00  0.00     0.006 A 
BRANCH  21  26
ATOM     26  C   UNL     1       9.253   1.558   4.351  1.00  0.00     0.113 C 
BRANCH  26  27
ATOM     27  N   UNL     1      10.341   1.969   5.230  1.00  0.00    -0.326 NA
ATOM     28  H   UNL     1      10.797   2.785   4.825  1.00  0.00     0.119 HD
ATOM     29  H   UNL     1       9.954   2.269   6.123  1.00  0.00     0.119 HD
ENDBRANCH  26  27
ENDBRANCH  21  26
ENDBRANCH  19  20
ENDBRANCH  16  19
ENDBRANCH  14  15
ENDBRANCH  13  14
ENDBRANCH  12  13
ENDBRANCH   9  12
ENDBRANCH   7   8
ENDBRANCH   1   7
BRANCH   4  30
ATOM     30  C   UNL     1      -1.827  -0.423  -2.586  1.00  0.00     0.151 C 
BRANCH  30  31
ATOM     31  N   UNL     1      -2.733  -1.156  -1.734  1.00  0.00    -0.352 N 
ATOM     32  C   UNL     1      -4.087  -1.147  -1.980  1.00  0.00     0.220 C 
ATOM     33  O   UNL     1      -4.607  -0.456  -2.848  1.00  0.00    -0.275 OA
ATOM     34  H   UNL     1      -2.345  -1.886  -1.150  1.00  0.00     0.163 HD
BRANCH  32  35
ATOM     35  C   UNL     1      -4.858  -2.070  -1.054  1.00  0.00     0.100 C 
BRANCH  35  36
ATOM     36  C   UNL     1      -6.365  -2.076  -1.302  1.00  0.00     0.020 C 
BRANCH  36  37
ATOM     37  C   UNL     1      -7.047  -0.783  -0.853  1.00  0.00     0.100 C 
BRANCH  37  38
ATOM     38  C   UNL     1      -8.556  -0.853  -0.997  1.00  0.00     0.220 C 
ATOM     39  O   UNL     1      -9.168  -1.887  -1.240  1.00  0.00    -0.275 OA
ATOM     40  N   UNL     1      -9.166   0.365  -0.796  1.00  0.00    -0.352 N 
ATOM     41  H   UNL     1      -8.612   1.138  -0.453  1.00  0.00     0.163 HD
BRANCH  40  42
ATOM     42  C   UNL     1     -10.603   0.506  -0.762  1.00  0.00     0.151 C 
BRANCH  42  43
ATOM     43  C   UNL     1     -11.096   0.582   0.659  1.00  0.00    -0.029 A 
ATOM     44  C   UNL     1     -11.340   1.819   1.270  1.00  0.00     0.006 A 
ATOM     45  C   UNL     1     -11.285  -0.590   1.403  1.00  0.00     0.006 A 
ATOM     46  C   UNL     1     -11.777   1.878   2.595  1.00  0.00     0.005 A 
ATOM     47  C   UNL     1     -11.724  -0.529   2.728  1.00  0.00     0.005 A 
ATOM     48  C   UNL     1     -11.977   0.706   3.338  1.00  0.00    -0.034 A 
BRANCH  48  49
ATOM     49  C   UNL     1     -12.442   0.777   4.770  1.00  0.00     0.113 C 
BRANCH  49  50
ATOM     50  N   UNL     1     -13.750   1.413   4.879  1.00  0.00    -0.326 NA
ATOM     51  H   UNL     1     -14.409   0.902   4.293  1.00  0.00     0.119 HD
ATOM     52  H   UNL     1     -14.086   1.323   5.836  1.00  0.00     0.119 HD
ENDBRANCH  49  50
ENDBRANCH  48  49
ENDBRANCH  42  43
ENDBRANCH  40  42
ENDBRANCH  37  38
ENDBRANCH  36  37
ENDBRANCH  35  36
ENDBRANCH  32  35
ENDBRANCH  30  31
ENDBRANCH   4  30
TORSDOF 20
