REMARK SMILES N=C(N)Nc1ccc(CNC(=O)N2CCN(C(=O)O[C@H]3CCC[C@@H](OC(=O)N4CCN(C(=O)CCNc5ccncc5)CC4)CCC3)CC2)cc1
REMARK SMILES IDX 46 1 47 2 20 3 19 4 17 5 10 6 11 7 12 8 13 9 14 10 49 11
REMARK SMILES IDX 15 12 48 13 16 14 18 15 9 17 8 18 5 19 6 20 51 21 7 22 50 23
REMARK SMILES IDX 4 24 1 25 2 26 3 27 21 32 22 33 45 35 24 36 25 37 26 38
REMARK SMILES IDX 27 39 28 40 29 41 44 42 30 43 43 44 31 45 32 46 33 47 34 48
REMARK SMILES IDX 35 49 36 50 37 52 38 53 42 54 39 55 41 56 40 57 23 58
REMARK H PARENT 10 16 1 28 3 29 3 30 4 31 36 51
REMARK Flexibility Score:  486.900
ROOT
ATOM      1  C   UNL     1       1.144   0.884   5.449  1.00  0.00     0.008 C 
ENDROOT
BRANCH   1   2
ATOM      2  C   UNL     1       0.134   0.722   4.319  1.00  0.00     0.045 C 
BRANCH   2   3
ATOM      3  C   UNL     1      -1.034   1.719   4.244  1.00  0.00     0.178 C 
BRANCH   3   4
ATOM      4  O   UNL     1      -1.567   1.610   2.905  1.00  0.00    -0.446 OA
BRANCH   4   5
ATOM      5  C   UNL     1      -2.894   1.861   2.744  1.00  0.00     0.410 C 
ATOM      6  N   UNL     1      -5.839  -0.242  -2.452  1.00  0.00    -0.334 N 
ATOM      7  C   UNL     1      -4.630   0.399  -2.422  1.00  0.00     0.317 C 
ATOM      8  O   UNL     1      -3.945   0.555  -3.428  1.00  0.00    -0.249 OA
ATOM      9  N   UNL     1      -4.252   0.858  -1.175  1.00  0.00    -0.321 N 
ATOM     10  C   UNL     1      -2.947   1.511  -1.040  1.00  0.00     0.143 C 
ATOM     11  C   UNL     1      -5.145   0.918  -0.009  1.00  0.00     0.143 C 
ATOM     12  C   UNL     1      -2.355   1.347   0.364  1.00  0.00     0.144 C 
ATOM     13  C   UNL     1      -4.685   1.920   1.058  1.00  0.00     0.144 C 
ATOM     14  N   UNL     1      -3.288   1.720   1.430  1.00  0.00    -0.305 N 
ATOM     15  O   UNL     1      -3.650   2.171   3.656  1.00  0.00    -0.224 OA
ATOM     16  H   UNL     1      -6.070  -0.764  -1.622  1.00  0.00     0.165 HD
BRANCH   6  17
ATOM     17  C   UNL     1      -6.321  -0.803  -3.693  1.00  0.00     0.153 C 
BRANCH  17  18
ATOM     18  C   UNL     1      -7.692  -1.395  -3.507  1.00  0.00    -0.029 A 
ATOM     19  C   UNL     1     -10.286  -2.487  -3.118  1.00  0.00     0.041 A 
ATOM     20  C   UNL     1     -10.089  -1.106  -3.199  1.00  0.00     0.026 A 
ATOM     21  C   UNL     1      -9.149  -3.310  -3.194  1.00  0.00     0.026 A 
ATOM     22  C   UNL     1      -8.812  -0.565  -3.399  1.00  0.00     0.008 A 
ATOM     23  C   UNL     1      -7.870  -2.776  -3.392  1.00  0.00     0.008 A 
BRANCH  19  24
ATOM     24  N   UNL     1     -11.536  -3.090  -2.868  1.00  0.00    -0.327 N 
ATOM     25  N   UNL     1     -13.103  -1.353  -3.312  1.00  0.00    -0.269 NA
ATOM     26  C   UNL     1     -12.780  -2.545  -2.963  1.00  0.00     0.190 C 
ATOM     27  N   UNL     1     -13.732  -3.453  -2.629  1.00  0.00    -0.370 N 
ATOM     28  H   UNL     1     -14.117  -1.248  -3.322  1.00  0.00     0.191 HD
ATOM     29  H   UNL     1     -14.655  -3.059  -2.492  1.00  0.00     0.159 HD
ATOM     30  H   UNL     1     -13.475  -4.016  -1.826  1.00  0.00     0.159 HD
ATOM     31  H   UNL     1     -11.525  -4.089  -3.018  1.00  0.00     0.170 HD
ENDBRANCH  19  24
ENDBRANCH  17  18
ENDBRANCH   6  17
ENDBRANCH   4   5
ENDBRANCH   3   4
BRANCH   3  32
ATOM     32  C   UNL     1      -0.733   3.188   4.561  1.00  0.00     0.045 C 
BRANCH  32  33
ATOM     33  C   UNL     1       0.247   3.937   3.650  1.00  0.00     0.008 CG0
ATOM     34  G   UNL     1       1.479   3.198   3.141  1.00  0.00     0.000 G0
ENDBRANCH  32  33
ENDBRANCH   3  32
ENDBRANCH   2   3
ENDBRANCH   1   2
BRANCH   1  35
ATOM     35  C   UNL     1       2.000   2.155   5.496  1.00  0.00     0.045 C 
BRANCH  35  36
ATOM     36  C   UNL     1       2.517   2.729   4.172  1.00  0.00     0.178 C 
BRANCH  36  37
ATOM     37  O   UNL     1       3.329   1.738   3.503  1.00  0.00    -0.446 OA
BRANCH  37  38
ATOM     38  C   UNL     1       4.635   1.655   3.869  1.00  0.00     0.410 C 
ATOM     39  O   UNL     1       5.156   2.358   4.725  1.00  0.00    -0.224 OA
ATOM     40  N   UNL     1       5.309   0.686   3.154  1.00  0.00    -0.305 N 
ATOM     41  C   UNL     1       6.739   0.484   3.367  1.00  0.00     0.144 C 
ATOM     42  C   UNL     1       4.651  -0.149   2.147  1.00  0.00     0.144 C 
ATOM     43  C   UNL     1       7.474   0.166   2.058  1.00  0.00     0.141 C 
ATOM     44  C   UNL     1       5.509  -1.338   1.701  1.00  0.00     0.141 C 
ATOM     45  N   UNL     1       6.860  -0.930   1.295  1.00  0.00    -0.339 N 
ATOM     46  C   UNL     1       7.450  -1.545   0.199  1.00  0.00     0.224 C 
ATOM     47  O   UNL     1       6.886  -2.444  -0.425  1.00  0.00    -0.275 OA
BRANCH  46  48
ATOM     48  C   UNL     1       8.830  -1.048  -0.199  1.00  0.00     0.121 C 
BRANCH  48  49
ATOM     49  C   UNL     1       9.367  -1.734  -1.455  1.00  0.00     0.123 C 
BRANCH  49  50
ATOM     50  N   UNL     1       8.611  -1.305  -2.632  1.00  0.00    -0.384 N 
ATOM     51  H   UNL     1       7.614  -1.499  -2.500  1.00  0.00     0.160 HD
BRANCH  50  52
ATOM     52  C   UNL     1       9.007  -1.742  -3.906  1.00  0.00     0.037 A 
ATOM     53  C   UNL     1       8.087  -1.647  -4.954  1.00  0.00     0.046 A 
ATOM     54  C   UNL     1      10.304  -2.133  -4.231  1.00  0.00     0.046 A 
ATOM     55  C   UNL     1       8.474  -2.004  -6.238  1.00  0.00     0.113 A 
ATOM     56  C   UNL     1      10.601  -2.471  -5.545  1.00  0.00     0.113 A 
ATOM     57  N   UNL     1       9.713  -2.425  -6.557  1.00  0.00    -0.265 NA
ENDBRANCH  50  52
ENDBRANCH  49  50
ENDBRANCH  48  49
ENDBRANCH  46  48
ENDBRANCH  37  38
ENDBRANCH  36  37
BRANCH  36  58
ATOM     58  C   UNL     1       1.479   3.198   3.141  1.00  0.00     0.045 CG0
ATOM     59  G   UNL     1       0.247   3.937   3.650  1.00  0.00     0.000 G0
ENDBRANCH  36  58
ENDBRANCH  35  36
ENDBRANCH   1  35
TORSDOF 11
