REMARK SMILES CC(Cc1ccc(C(=O)Oc2ccc(C(=N)N)cc2)o1)C(=O)NCCC(=O)O
REMARK SMILES IDX 1 1 2 2 3 3 4 4 5 5 20 6 6 7 7 8 8 9 9 10 10 11 11 12 12 13
REMARK SMILES IDX 19 14 13 15 18 16 14 17 15 18 16 19 17 20 21 24 22 25 23 26
REMARK SMILES IDX 24 28 25 29 26 30 27 31 28 32
REMARK H PARENT 16 21 17 22 17 23 23 27 28 33
ROOT
ATOM      1  C   UNL     1      -2.168  -2.172   0.856  1.00  0.00     0.018 C 
ATOM      2  C   UNL     1      -3.090  -2.467  -0.328  1.00  0.00     0.083 C 
ENDROOT
BRANCH   2   3
ATOM      3  C   UNL     1      -2.362  -2.726  -1.653  1.00  0.00     0.088 C 
BRANCH   3   4
ATOM      4  C   UNL     1      -1.553  -1.590  -2.171  1.00  0.00     0.105 A 
ATOM      5  C   UNL     1      -1.733  -0.699  -3.206  1.00  0.00     0.046 A 
ATOM      6  O   UNL     1      -0.374  -1.339  -1.539  1.00  0.00    -0.454 OA
ATOM      7  C   UNL     1      -0.604   0.154  -3.197  1.00  0.00     0.058 A 
ATOM      8  C   UNL     1       0.209  -0.266  -2.161  1.00  0.00     0.212 A 
BRANCH   8   9
ATOM      9  C   UNL     1       1.479   0.243  -1.695  1.00  0.00     0.379 C 
ATOM     10  O   UNL     1       2.079   1.188  -2.198  1.00  0.00    -0.242 OA
BRANCH   9  11
ATOM     11  O   UNL     1       1.905  -0.496  -0.595  1.00  0.00    -0.421 OA
BRANCH  11  12
ATOM     12  C   UNL     1       3.121  -0.059  -0.069  1.00  0.00     0.131 A 
ATOM     13  C   UNL     1       4.295  -0.699  -0.462  1.00  0.00     0.048 A 
ATOM     14  C   UNL     1       3.128   0.954   0.889  1.00  0.00     0.048 A 
ATOM     15  C   UNL     1       5.508  -0.292   0.092  1.00  0.00     0.016 A 
ATOM     16  C   UNL     1       4.343   1.360   1.444  1.00  0.00     0.016 A 
ATOM     17  C   UNL     1       5.533   0.740   1.042  1.00  0.00     0.016 A 
BRANCH  17  18
ATOM     18  C   UNL     1       6.832   1.161   1.626  1.00  0.00     0.122 C 
ATOM     19  N   UNL     1       7.892   1.319   0.898  1.00  0.00    -0.284 NA
ATOM     20  N   UNL     1       6.953   1.399   2.959  1.00  0.00    -0.384 N 
ATOM     21  H   UNL     1       7.686   1.145  -0.091  1.00  0.00     0.189 HD
ATOM     22  H   UNL     1       7.806   1.898   3.189  1.00  0.00     0.158 HD
ATOM     23  H   UNL     1       6.142   1.685   3.488  1.00  0.00     0.158 HD
ENDBRANCH  17  18
ENDBRANCH  11  12
ENDBRANCH   9  11
ENDBRANCH   8   9
ENDBRANCH   3   4
ENDBRANCH   2   3
BRANCH   2  24
ATOM     24  C   UNL     1      -4.196  -1.429  -0.472  1.00  0.00     0.223 C 
ATOM     25  O   UNL     1      -5.380  -1.758  -0.513  1.00  0.00    -0.275 OA
ATOM     26  N   UNL     1      -3.790  -0.121  -0.578  1.00  0.00    -0.355 N 
ATOM     27  H   UNL     1      -2.813   0.112  -0.434  1.00  0.00     0.163 HD
BRANCH  26  28
ATOM     28  C   UNL     1      -4.729   0.983  -0.639  1.00  0.00     0.127 C 
BRANCH  28  29
ATOM     29  C   UNL     1      -5.225   1.408   0.737  1.00  0.00     0.143 C 
BRANCH  29  30
ATOM     30  C   UNL     1      -4.136   2.075   1.530  1.00  0.00     0.305 C 
ATOM     31  O   UNL     1      -2.945   2.115   1.268  1.00  0.00    -0.252 OA
BRANCH  30  32
ATOM     32  O   UNL     1      -4.612   2.658   2.648  1.00  0.00    -0.481 OA
ATOM     33  H   UNL     1      -3.821   3.039   3.084  1.00  0.00     0.296 HD
ENDBRANCH  30  32
ENDBRANCH  29  30
ENDBRANCH  28  29
ENDBRANCH  26  28
ENDBRANCH   2  24
TORSDOF 11
