REMARK SMILES COc1ccc(-c2nc3cc4c(cc3c(=O)o2)OCCCO4)c(OC)c1
REMARK SMILES IDX 7 1 8 2 9 3 10 4 11 5 12 6 13 7 14 8 15 9 16 10 17 11 6 12
REMARK SMILES IDX 3 13 4 14 26 15 5 16 23 17 2 18 1 19 24 20 25 21 22 22 21 23
REMARK SMILES IDX 18 25 19 26 20 27
REMARK H PARENT
REMARK Flexibility Score:    8.900
ROOT
ATOM      1  C   UNL     1      -0.983   0.386  -0.879  1.00  0.00     0.234 C 
ATOM      2  N   UNL     1      -0.223  -0.247  -0.048  1.00  0.00    -0.212 NA
ATOM      3  C   UNL     1       1.151  -0.099  -0.211  1.00  0.00     0.086 A 
ATOM      4  C   UNL     1       2.021  -0.742   0.671  1.00  0.00     0.079 A 
ATOM      5  C   UNL     1       3.406  -0.595   0.541  1.00  0.00     0.163 A 
ATOM      6  C   UNL     1       3.929   0.157  -0.521  1.00  0.00     0.162 A 
ATOM      7  C   UNL     1       3.060   0.822  -1.388  1.00  0.00     0.068 A 
ATOM      8  C   UNL     1       1.678   0.684  -1.226  1.00  0.00     0.090 A 
ATOM      9  C   UNL     1       0.736   1.352  -2.132  1.00  0.00     0.347 C 
ATOM     10  O   UNL     1       1.142   2.041  -3.061  1.00  0.00    -0.246 OA
ATOM     11  O   UNL     1      -0.586   1.170  -1.906  1.00  0.00    -0.403 OA
ENDROOT
BRANCH   1  12
ATOM     12  C   UNL     1      -2.457   0.348  -0.836  1.00  0.00     0.080 A 
ATOM     13  C   UNL     1      -5.264   0.249  -0.790  1.00  0.00     0.122 A 
ATOM     14  C   UNL     1      -4.568   0.061  -1.987  1.00  0.00     0.047 A 
ATOM     15  C   UNL     1      -4.553   0.485   0.387  1.00  0.00     0.093 A 
ATOM     16  C   UNL     1      -3.172   0.114  -2.017  1.00  0.00     0.021 A 
ATOM     17  C   UNL     1      -3.152   0.515   0.367  1.00  0.00     0.135 A 
BRANCH  13  18
ATOM     18  O   UNL     1      -6.625   0.184  -0.908  1.00  0.00    -0.497 OA
ATOM     19  C   UNL     1      -7.386   0.402   0.274  1.00  0.00     0.278 C 
ENDBRANCH  13  18
BRANCH  17  20
ATOM     20  O   UNL     1      -2.482   0.819   1.524  1.00  0.00    -0.496 OA
ATOM     21  C   UNL     1      -2.453  -0.308   2.401  1.00  0.00     0.278 C 
ENDBRANCH  17  20
ENDBRANCH   1  12
BRANCH   5  22
ATOM     22  O   UNL     1       4.148  -1.238   1.500  1.00  0.00    -0.489 OA
BRANCH  22  23
ATOM     23  C   UNL     1       5.333  -0.532   1.873  1.00  0.00     0.233 CG0
ATOM     24  G   UNL     1       6.483  -0.863   0.937  1.00  0.00     0.000 G0
ENDBRANCH  22  23
ENDBRANCH   5  22
BRANCH   6  25
ATOM     25  O   UNL     1       5.261   0.322  -0.799  1.00  0.00    -0.490 OA
BRANCH  25  26
ATOM     26  C   UNL     1       6.052  -0.834  -0.519  1.00  0.00     0.233 C 
BRANCH  26  27
ATOM     27  C   UNL     1       6.483  -0.863   0.937  1.00  0.00     0.083 CG0
ATOM     28  G   UNL     1       5.333  -0.532   1.873  1.00  0.00     0.000 G0
ENDBRANCH  26  27
ENDBRANCH  25  26
ENDBRANCH   6  25
TORSDOF 3
