REMARK SMILES CCC(CC)(Cc1ccc(C(=O)Oc2ccc(C(=N)N)cc2F)s1)C(=O)N1CCC[C@@H]1C(=O)O
REMARK SMILES IDX 6 1 3 2 2 3 1 4 4 5 5 6 25 7 26 8 27 9 28 10 31 11 29 12
REMARK SMILES IDX 30 13 32 14 33 15 34 16 7 18 8 19 24 20 9 21 10 22 11 23
REMARK SMILES IDX 12 24 13 25 14 26 15 27 22 28 16 29 21 30 17 31 23 32 18 33
REMARK SMILES IDX 19 34 20 35
REMARK H PARENT 34 17 19 36 20 37 20 38
ROOT
ATOM      1  C   UNL     1      -1.734   1.572  -0.550  1.00  0.00     0.063 C 
ENDROOT
BRANCH   1   2
ATOM      2  C   UNL     1      -2.584   0.493  -1.312  1.00  0.00     0.054 C 
BRANCH   2   3
ATOM      3  C   UNL     1      -1.975  -0.932  -1.186  1.00  0.00     0.014 C 
ATOM      4  C   UNL     1      -2.879  -2.126  -1.480  1.00  0.00     0.005 C 
ENDBRANCH   2   3
BRANCH   2   5
ATOM      5  C   UNL     1      -2.619   0.942  -2.820  1.00  0.00     0.014 C 
ATOM      6  C   UNL     1      -3.427   0.096  -3.797  1.00  0.00     0.005 C 
ENDBRANCH   2   5
BRANCH   2   7
ATOM      7  C   UNL     1      -4.016   0.633  -0.714  1.00  0.00     0.229 C 
ATOM      8  O   UNL     1      -4.880   1.259  -1.342  1.00  0.00    -0.274 OA
BRANCH   7   9
ATOM      9  N   UNL     1      -4.336   0.150   0.538  1.00  0.00    -0.328 N 
ATOM     10  C   UNL     1      -3.513  -0.482   1.557  1.00  0.00     0.120 C 
ATOM     11  C   UNL     1      -5.701   0.375   1.049  1.00  0.00     0.195 C 
ATOM     12  C   UNL     1      -4.178  -0.075   2.861  1.00  0.00     0.024 C 
ATOM     13  C   UNL     1      -5.656  -0.098   2.508  1.00  0.00     0.039 C 
BRANCH  11  14
ATOM     14  C   UNL     1      -6.810  -0.395   0.325  1.00  0.00     0.326 C 
ATOM     15  O   UNL     1      -8.010  -0.249   0.516  1.00  0.00    -0.250 OA
BRANCH  14  16
ATOM     16  O   UNL     1      -6.381  -1.363  -0.510  1.00  0.00    -0.480 OA
ATOM     17  H   UNL     1      -7.206  -1.715  -0.903  1.00  0.00     0.296 HD
ENDBRANCH  14  16
ENDBRANCH  11  14
ENDBRANCH   7   9
ENDBRANCH   2   7
ENDBRANCH   1   2
BRANCH   1  18
ATOM     18  C   UNL     1      -0.261   1.622  -0.874  1.00  0.00     0.007 A 
ATOM     19  C   UNL     1       0.374   2.359  -1.853  1.00  0.00     0.016 A 
ATOM     20  S   UNL     1       0.872   0.765   0.084  1.00  0.00    -0.133 S 
ATOM     21  C   UNL     1       1.786   2.175  -1.839  1.00  0.00     0.028 A 
ATOM     22  C   UNL     1       2.204   1.321  -0.835  1.00  0.00     0.113 A 
BRANCH  22  23
ATOM     23  C   UNL     1       3.577   0.930  -0.552  1.00  0.00     0.353 C 
ATOM     24  O   UNL     1       4.550   1.322  -1.191  1.00  0.00    -0.245 OA
BRANCH  23  25
ATOM     25  O   UNL     1       3.634   0.033   0.513  1.00  0.00    -0.419 OA
BRANCH  25  26
ATOM     26  C   UNL     1       4.940  -0.275   0.895  1.00  0.00     0.166 A 
ATOM     27  C   UNL     1       5.473  -1.511   0.537  1.00  0.00     0.051 A 
ATOM     28  C   UNL     1       5.667   0.617   1.682  1.00  0.00     0.166 A 
ATOM     29  C   UNL     1       6.769  -1.834   0.945  1.00  0.00     0.016 A 
ATOM     30  C   UNL     1       6.953   0.299   2.095  1.00  0.00     0.055 A 
ATOM     31  C   UNL     1       7.515  -0.927   1.716  1.00  0.00     0.019 A 
ATOM     32  F   UNL     1       5.123   1.786   2.049  1.00  0.00    -0.203 F 
BRANCH  31  33
ATOM     33  C   UNL     1       8.901  -1.261   2.155  1.00  0.00     0.122 C 
ATOM     34  N   UNL     1       9.408  -0.646   3.172  1.00  0.00    -0.284 NA
ATOM     35  N   UNL     1       9.636  -2.197   1.485  1.00  0.00    -0.384 N 
ATOM     36  H   UNL     1      10.344  -1.004   3.368  1.00  0.00     0.189 HD
ATOM     37  H   UNL     1       9.420  -2.302   0.499  1.00  0.00     0.158 HD
ATOM     38  H   UNL     1      10.637  -2.153   1.636  1.00  0.00     0.158 HD
ENDBRANCH  31  33
ENDBRANCH  25  26
ENDBRANCH  23  25
ENDBRANCH  22  23
ENDBRANCH   1  18
TORSDOF 12
