REMARK SMILES COc1ccc(-n2nc(C)cc2C(=O)Nc2ccc(-c3ccccc3S(N)(=O)=O)cc2)cc1
REMARK SMILES IDX 16 1 17 2 18 3 19 4 30 5 31 6 15 7 13 8 14 9 12 11 7 12 8 13
REMARK SMILES IDX 9 14 11 15 10 16 6 17 3 18 4 19 33 20 5 21 32 22 2 23 1 24
REMARK SMILES IDX 20 25 21 26 25 27 22 28 24 29 23 30 26 31 28 32 29 33 27 34
REMARK H PARENT 15 10 27 35 27 36
ROOT
ATOM      1  C   UNL     1      -0.428  -1.423  -0.630  1.00  0.00     0.041 A 
ATOM      2  C   UNL     1      -0.977  -1.131  -1.878  1.00  0.00     0.027 A 
ATOM      3  C   UNL     1      -2.283  -0.636  -1.980  1.00  0.00     0.011 A 
ATOM      4  C   UNL     1      -3.066  -0.420  -0.839  1.00  0.00    -0.017 A 
ATOM      5  C   UNL     1      -2.514  -0.727   0.410  1.00  0.00     0.011 A 
ATOM      6  C   UNL     1      -1.209  -1.219   0.514  1.00  0.00     0.027 A 
ENDROOT
BRANCH   1   7
ATOM      7  N   UNL     1       0.888  -1.887  -0.432  1.00  0.00    -0.321 N 
ATOM      8  C   UNL     1       1.848  -2.151  -1.392  1.00  0.00     0.274 C 
ATOM      9  O   UNL     1       1.656  -2.172  -2.602  1.00  0.00    -0.267 OA
ATOM     10  H   UNL     1       1.163  -2.018   0.534  1.00  0.00     0.170 HD
BRANCH   8  11
ATOM     11  C   UNL     1       3.138  -2.477  -0.836  1.00  0.00     0.132 A 
ATOM     12  N   UNL     1       3.858  -1.782   0.126  1.00  0.00    -0.228 N 
ATOM     13  N   UNL     1       4.896  -2.533   0.589  1.00  0.00    -0.173 NA
ATOM     14  C   UNL     1       4.984  -3.564  -0.254  1.00  0.00     0.061 A 
ATOM     15  C   UNL     1       3.923  -3.566  -1.173  1.00  0.00     0.059 A 
ATOM     16  C   UNL     1       6.084  -4.547  -0.119  1.00  0.00     0.069 C 
BRANCH  12  17
ATOM     17  C   UNL     1       3.652  -0.473   0.659  1.00  0.00     0.066 A 
ATOM     18  C   UNL     1       3.252   2.079   1.791  1.00  0.00     0.119 A 
ATOM     19  C   UNL     1       2.654   1.745   0.578  1.00  0.00     0.048 A 
ATOM     20  C   UNL     1       4.076   1.146   2.421  1.00  0.00     0.048 A 
ATOM     21  C   UNL     1       2.860   0.481   0.007  1.00  0.00     0.032 A 
ATOM     22  C   UNL     1       4.282  -0.119   1.861  1.00  0.00     0.032 A 
BRANCH  18  23
ATOM     23  O   UNL     1       3.125   3.270   2.450  1.00  0.00    -0.497 OA
ATOM     24  C   UNL     1       2.228   4.220   1.888  1.00  0.00     0.278 C 
ENDBRANCH  18  23
ENDBRANCH  12  17
ENDBRANCH   8  11
ENDBRANCH   1   7
BRANCH   4  25
ATOM     25  C   UNL     1      -4.434   0.101  -0.955  1.00  0.00     0.002 A 
ATOM     26  C   UNL     1      -5.454  -0.784  -1.356  1.00  0.00     0.010 A 
ATOM     27  C   UNL     1      -4.791   1.436  -0.681  1.00  0.00     0.090 A 
ATOM     28  C   UNL     1      -6.779  -0.359  -1.477  1.00  0.00     0.001 A 
ATOM     29  C   UNL     1      -6.124   1.861  -0.801  1.00  0.00     0.022 A 
ATOM     30  C   UNL     1      -7.113   0.962  -1.198  1.00  0.00     0.001 A 
BRANCH  27  31
ATOM     31  S   UNL     1      -3.545   2.602  -0.199  1.00  0.00     0.238 S 
ATOM     32  O   UNL     1      -2.561   2.719  -1.250  1.00  0.00    -0.207 OA
ATOM     33  O   UNL     1      -3.204   2.374   1.186  1.00  0.00    -0.207 OA
BRANCH  31  34
ATOM     34  N   UNL     1      -4.325   4.097  -0.203  1.00  0.00    -0.225 NA
ATOM     35  H   UNL     1      -3.885   4.694  -0.905  1.00  0.00     0.137 HD
ATOM     36  H   UNL     1      -4.295   4.487   0.740  1.00  0.00     0.137 HD
ENDBRANCH  31  34
ENDBRANCH  27  31
ENDBRANCH   4  25
TORSDOF 7
