REMARK SMILES CC(C)C[C@@H](C(=O)N[C@@H](CCC(=O)O)C(=O)O)N(C)Cc1ccc(C(=O)Oc2ccc(C(=N)N)cc2F)s1
REMARK SMILES IDX 5 1 4 2 2 3 1 4 3 5 6 6 7 7 8 8 9 10 10 11 11 12 12 13 13 14
REMARK SMILES IDX 14 15 15 17 16 18 17 19 18 21 19 22 20 23 21 24 22 25 38 26
REMARK SMILES IDX 23 27 24 28 25 29 26 30 27 31 28 32 29 33 36 34 30 35 35 36
REMARK SMILES IDX 31 37 37 38 32 39 33 40 34 41
REMARK H PARENT 8 9 14 16 17 20 33 42 34 43 34 44
ROOT
ATOM      1  C   UNL     1      -2.558  -0.106   0.612  1.00  0.00     0.147 C 
ENDROOT
BRANCH   1   2
ATOM      2  C   UNL     1      -2.847  -0.192   2.136  1.00  0.00     0.032 C 
BRANCH   2   3
ATOM      3  C   UNL     1      -3.082   1.130   2.903  1.00  0.00    -0.015 C 
ATOM      4  C   UNL     1      -3.453   0.810   4.357  1.00  0.00     0.007 C 
ATOM      5  C   UNL     1      -1.891   2.084   2.884  1.00  0.00     0.007 C 
ENDBRANCH   2   3
ENDBRANCH   1   2
BRANCH   1   6
ATOM      6  C   UNL     1      -3.766   0.627  -0.041  1.00  0.00     0.238 C 
ATOM      7  O   UNL     1      -3.810   1.836  -0.252  1.00  0.00    -0.273 OA
ATOM      8  N   UNL     1      -4.826  -0.215  -0.347  1.00  0.00    -0.341 N 
ATOM      9  H   UNL     1      -4.882  -1.055   0.216  1.00  0.00     0.164 HD
BRANCH   8  10
ATOM     10  C   UNL     1      -6.116   0.357  -0.747  1.00  0.00     0.192 C 
BRANCH  10  11
ATOM     11  C   UNL     1      -6.823  -0.533  -1.776  1.00  0.00     0.048 C 
BRANCH  11  12
ATOM     12  C   UNL     1      -7.173  -1.933  -1.264  1.00  0.00     0.125 C 
BRANCH  12  13
ATOM     13  C   UNL     1      -7.866  -2.747  -2.323  1.00  0.00     0.303 C 
ATOM     14  O   UNL     1      -8.108  -2.420  -3.471  1.00  0.00    -0.252 OA
BRANCH  13  15
ATOM     15  O   UNL     1      -8.217  -3.964  -1.864  1.00  0.00    -0.481 OA
ATOM     16  H   UNL     1      -8.657  -4.390  -2.631  1.00  0.00     0.296 HD
ENDBRANCH  13  15
ENDBRANCH  12  13
ENDBRANCH  11  12
ENDBRANCH  10  11
BRANCH  10  17
ATOM     17  C   UNL     1      -7.021   0.609   0.466  1.00  0.00     0.326 C 
ATOM     18  O   UNL     1      -8.117   1.145   0.450  1.00  0.00    -0.250 OA
BRANCH  17  19
ATOM     19  O   UNL     1      -6.540   0.097   1.623  1.00  0.00    -0.480 OA
ATOM     20  H   UNL     1      -7.210   0.369   2.288  1.00  0.00     0.296 HD
ENDBRANCH  17  19
ENDBRANCH  10  17
ENDBRANCH   8  10
ENDBRANCH   1   6
BRANCH   1  21
ATOM     21  N   UNL     1      -1.253   0.491   0.196  1.00  0.00    -0.290 NA
ATOM     22  C   UNL     1      -1.133   0.491  -1.274  1.00  0.00     0.106 C 
BRANCH  21  23
ATOM     23  C   UNL     1      -0.107  -0.235   0.784  1.00  0.00     0.131 C 
BRANCH  23  24
ATOM     24  C   UNL     1       1.211   0.468   0.567  1.00  0.00     0.020 A 
ATOM     25  C   UNL     1       1.530   1.789   0.812  1.00  0.00     0.017 A 
ATOM     26  S   UNL     1       2.564  -0.397  -0.028  1.00  0.00    -0.132 S 
ATOM     27  C   UNL     1       2.887   2.084   0.498  1.00  0.00     0.028 A 
ATOM     28  C   UNL     1       3.578   0.983   0.025  1.00  0.00     0.113 A 
BRANCH  28  29
ATOM     29  C   UNL     1       4.974   0.952  -0.382  1.00  0.00     0.353 C 
ATOM     30  O   UNL     1       5.725   1.923  -0.348  1.00  0.00    -0.245 OA
BRANCH  29  31
ATOM     31  O   UNL     1       5.336  -0.315  -0.839  1.00  0.00    -0.419 OA
BRANCH  31  32
ATOM     32  C   UNL     1       6.694  -0.420  -1.144  1.00  0.00     0.166 A 
ATOM     33  C   UNL     1       7.078  -0.477  -2.482  1.00  0.00     0.051 A 
ATOM     34  C   UNL     1       7.637  -0.527  -0.123  1.00  0.00     0.166 A 
ATOM     35  C   UNL     1       8.433  -0.611  -2.793  1.00  0.00     0.016 A 
ATOM     36  C   UNL     1       8.987  -0.659  -0.426  1.00  0.00     0.055 A 
ATOM     37  C   UNL     1       9.385  -0.702  -1.766  1.00  0.00     0.019 A 
ATOM     38  F   UNL     1       7.248  -0.510   1.159  1.00  0.00    -0.203 F 
BRANCH  37  39
ATOM     39  C   UNL     1      10.830  -0.832  -2.089  1.00  0.00     0.122 C 
ATOM     40  N   UNL     1      11.261  -1.492  -3.116  1.00  0.00    -0.284 NA
ATOM     41  N   UNL     1      11.765  -0.241  -1.295  1.00  0.00    -0.384 N 
ATOM     42  H   UNL     1      10.494  -1.940  -3.625  1.00  0.00     0.189 HD
ATOM     43  H   UNL     1      11.519   0.668  -0.918  1.00  0.00     0.158 HD
ATOM     44  H   UNL     1      12.674  -0.235  -1.750  1.00  0.00     0.158 HD
ENDBRANCH  37  39
ENDBRANCH  31  32
ENDBRANCH  29  31
ENDBRANCH  28  29
ENDBRANCH  23  24
ENDBRANCH  21  23
ENDBRANCH   1  21
TORSDOF 17
