REMARK SMILES CN(C(=O)C(Cc1ccc(CN)cc1)NS(=O)(=O)c1ccc2c(c1)CCCCC2)C1CCCC1
REMARK SMILES IDX 15 1 5 3 3 4 4 5 2 6 1 7 30 8 31 9 34 10 32 11 33 12 6 13
REMARK SMILES IDX 7 14 8 15 14 16 9 17 13 18 10 19 11 20 12 21 16 24 17 25
REMARK SMILES IDX 18 26 19 27 20 28 24 29 21 30 23 31 22 32 25 33 26 34 27 35
REMARK SMILES IDX 28 36 29 38
REMARK H PARENT 15 2 12 22 12 23
REMARK Flexibility Score:   67.900
ROOT
ATOM      1  N   UNL     1      -0.211   2.095  -2.111  1.00  0.00    -0.198 NA
ATOM      2  H   UNL     1      -0.048   2.514  -1.187  1.00  0.00     0.142 HD
ENDROOT
BRANCH   1   3
ATOM      3  C   UNL     1      -1.140   0.931  -2.051  1.00  0.00     0.163 C 
BRANCH   3   4
ATOM      4  C   UNL     1      -0.936   0.235  -0.691  1.00  0.00     0.241 C 
ATOM      5  O   UNL     1      -0.307   0.828   0.196  1.00  0.00    -0.273 OA
BRANCH   4   6
ATOM      6  N   UNL     1      -1.476  -1.035  -0.479  1.00  0.00    -0.341 N 
ATOM      7  C   UNL     1      -1.976  -1.902  -1.540  1.00  0.00     0.147 C 
BRANCH   6   8
ATOM      8  C   UNL     1      -1.260  -1.623   0.849  1.00  0.00     0.084 C 
ATOM      9  C   UNL     1       0.137  -2.238   1.014  1.00  0.00     0.025 C 
ATOM     10  C   UNL     1      -2.202  -2.752   1.270  1.00  0.00     0.025 C 
ATOM     11  C   UNL     1      -0.013  -3.346   2.059  1.00  0.00     0.002 C 
ATOM     12  C   UNL     1      -1.481  -3.346   2.471  1.00  0.00     0.002 C 
ENDBRANCH   6   8
ENDBRANCH   4   6
ENDBRANCH   3   4
BRANCH   3  13
ATOM     13  C   UNL     1      -2.589   1.407  -2.254  1.00  0.00     0.065 C 
BRANCH  13  14
ATOM     14  C   UNL     1      -3.120   2.347  -1.195  1.00  0.00    -0.046 A 
ATOM     15  C   UNL     1      -3.831   1.854  -0.095  1.00  0.00     0.004 A 
ATOM     16  C   UNL     1      -2.896   3.726  -1.293  1.00  0.00     0.004 A 
ATOM     17  C   UNL     1      -4.307   2.724   0.889  1.00  0.00     0.005 A 
ATOM     18  C   UNL     1      -3.371   4.596  -0.308  1.00  0.00     0.005 A 
ATOM     19  C   UNL     1      -4.079   4.104   0.796  1.00  0.00    -0.034 A 
BRANCH  19  20
ATOM     20  C   UNL     1      -4.600   5.041   1.856  1.00  0.00     0.113 C 
BRANCH  20  21
ATOM     21  N   UNL     1      -4.071   4.711   3.175  1.00  0.00    -0.326 NA
ATOM     22  H   UNL     1      -3.053   4.709   3.124  1.00  0.00     0.119 HD
ATOM     23  H   UNL     1      -4.325   5.448   3.829  1.00  0.00     0.119 HD
ENDBRANCH  20  21
ENDBRANCH  19  20
ENDBRANCH  13  14
ENDBRANCH   3  13
ENDBRANCH   1   3
BRANCH   1  24
ATOM     24  S   UNL     1       1.188   1.958  -3.020  1.00  0.00     0.241 S 
ATOM     25  O   UNL     1       1.980   3.140  -2.762  1.00  0.00    -0.207 OA
ATOM     26  O   UNL     1       0.787   1.593  -4.362  1.00  0.00    -0.207 OA
BRANCH  24  27
ATOM     27  C   UNL     1       2.032   0.570  -2.306  1.00  0.00     0.082 A 
ATOM     28  C   UNL     1       2.092  -0.638  -2.991  1.00  0.00     0.022 A 
ATOM     29  C   UNL     1       2.673   0.716  -1.074  1.00  0.00     0.025 A 
ATOM     30  C   UNL     1       2.768  -1.712  -2.414  1.00  0.00     0.005 A 
ATOM     31  C   UNL     1       3.376  -0.358  -0.488  1.00  0.00    -0.043 A 
ATOM     32  C   UNL     1       3.397  -1.602  -1.155  1.00  0.00    -0.045 A 
BRANCH  31  33
ATOM     33  C   UNL     1       4.028  -0.086   0.853  1.00  0.00     0.036 C 
BRANCH  33  34
ATOM     34  C   UNL     1       5.354  -0.801   1.090  1.00  0.00     0.005 C 
BRANCH  34  35
ATOM     35  C   UNL     1       5.188  -2.235   1.582  1.00  0.00     0.001 C 
BRANCH  35  36
ATOM     36  C   UNL     1       4.100  -3.033   0.871  1.00  0.00     0.005 CG0
ATOM     37  G   UNL     1       4.099  -2.843  -0.642  1.00  0.00     0.000 G0
ENDBRANCH  35  36
ENDBRANCH  34  35
ENDBRANCH  33  34
ENDBRANCH  31  33
BRANCH  32  38
ATOM     38  C   UNL     1       4.099  -2.843  -0.642  1.00  0.00     0.036 CG0
ATOM     39  G   UNL     1       4.100  -3.033   0.871  1.00  0.00     0.000 G0
ENDBRANCH  32  38
ENDBRANCH  24  27
ENDBRANCH   1  24
TORSDOF 10
