REMARK SMILES N[C@@H](C(=O)N1CCC[C@H]1C(=O)NCc1cc(Cl)ccc1OCC(=O)NC1CC1)C1CCCCC1
REMARK SMILES IDX 10 1 11 2 12 3 9 5 5 6 6 7 7 8 8 9 3 10 4 11 2 12 1 13 29 16
REMARK SMILES IDX 30 17 34 18 31 19 33 20 32 21 13 22 14 23 15 24 20 25 16 26
REMARK SMILES IDX 19 27 18 28 17 29 21 30 22 31 23 32 24 33 25 34 26 36 27 37
REMARK SMILES IDX 28 38
REMARK H PARENT 12 4 1 14 1 15 25 35
ROOT
ATOM      1  C   UNL     1      -0.193   0.340   0.702  1.00  0.00     0.243 C 
ATOM      2  O   UNL     1       0.425   0.973  -0.152  1.00  0.00    -0.273 OA
ATOM      3  N   UNL     1       0.253   0.215   2.003  1.00  0.00    -0.350 N 
ATOM      4  H   UNL     1      -0.296  -0.312   2.667  1.00  0.00     0.163 HD
ENDROOT
BRANCH   1   5
ATOM      5  C   UNL     1      -1.543  -0.371   0.428  1.00  0.00     0.174 C 
ATOM      6  N   UNL     1      -2.002  -0.192  -0.953  1.00  0.00    -0.329 N 
ATOM      7  C   UNL     1      -1.672  -1.357  -1.761  1.00  0.00     0.120 C 
ATOM      8  C   UNL     1      -0.881  -2.279  -0.847  1.00  0.00     0.024 C 
ATOM      9  C   UNL     1      -1.370  -1.890   0.542  1.00  0.00     0.037 C 
BRANCH   6  10
ATOM     10  C   UNL     1      -2.643   0.873  -1.545  1.00  0.00     0.240 C 
ATOM     11  O   UNL     1      -2.882   0.834  -2.761  1.00  0.00    -0.273 OA
BRANCH  10  12
ATOM     12  C   UNL     1      -3.135   2.114  -0.744  1.00  0.00     0.144 C 
BRANCH  12  13
ATOM     13  N   UNL     1      -2.288   2.432   0.427  1.00  0.00    -0.320 NA
ATOM     14  H   UNL     1      -2.565   3.346   0.785  1.00  0.00     0.119 HD
ATOM     15  H   UNL     1      -1.330   2.563   0.078  1.00  0.00     0.119 HD
ENDBRANCH  12  13
BRANCH  12  16
ATOM     16  C   UNL     1      -4.640   2.087  -0.360  1.00  0.00     0.015 C 
ATOM     17  C   UNL     1      -5.060   0.976   0.625  1.00  0.00     0.006 C 
ATOM     18  C   UNL     1      -5.556   2.128  -1.605  1.00  0.00     0.006 C 
ATOM     19  C   UNL     1      -5.746  -0.194  -0.069  1.00  0.00     0.000 C 
ATOM     20  C   UNL     1      -6.979   1.696  -1.271  1.00  0.00     0.000 C 
ATOM     21  C   UNL     1      -7.023   0.245  -0.788  1.00  0.00     0.000 C 
ENDBRANCH  12  16
ENDBRANCH  10  12
ENDBRANCH   6  10
ENDBRANCH   1   5
BRANCH   3  22
ATOM     22  C   UNL     1       1.542   0.715   2.429  1.00  0.00     0.155 C 
BRANCH  22  23
ATOM     23  C   UNL     1       2.543  -0.410   2.518  1.00  0.00     0.015 A 
ATOM     24  C   UNL     1       2.451  -1.336   3.572  1.00  0.00     0.030 A 
ATOM     25  C   UNL     1       3.545  -0.592   1.554  1.00  0.00     0.125 A 
ATOM     26  C   UNL     1       3.348  -2.401   3.659  1.00  0.00     0.041 A 
ATOM     27  C   UNL     1       4.455  -1.649   1.656  1.00  0.00     0.048 A 
ATOM     28  C   UNL     1       4.351  -2.560   2.707  1.00  0.00     0.024 A 
ATOM     29  Cl  UNL     1       3.214  -3.523   4.956  1.00  0.00    -0.084 Cl
BRANCH  25  30
ATOM     30  O   UNL     1       3.678   0.327   0.546  1.00  0.00    -0.483 OA
BRANCH  30  31
ATOM     31  C   UNL     1       3.325  -0.223  -0.730  1.00  0.00     0.329 C 
BRANCH  31  32
ATOM     32  C   UNL     1       4.554  -0.594  -1.555  1.00  0.00     0.258 C 
ATOM     33  O   UNL     1       4.554  -1.521  -2.361  1.00  0.00    -0.271 OA
ATOM     34  N   UNL     1       5.640   0.231  -1.324  1.00  0.00    -0.350 N 
ATOM     35  H   UNL     1       5.548   0.914  -0.578  1.00  0.00     0.163 HD
BRANCH  34  36
ATOM     36  C   UNL     1       6.907   0.034  -1.944  1.00  0.00     0.082 C 
ATOM     37  C   UNL     1       8.099   0.854  -1.532  1.00  0.00     0.027 C 
ATOM     38  C   UNL     1       8.036  -0.604  -1.182  1.00  0.00     0.027 C 
ENDBRANCH  34  36
ENDBRANCH  31  32
ENDBRANCH  30  31
ENDBRANCH  25  30
ENDBRANCH  22  23
ENDBRANCH   3  22
TORSDOF 11
