REMARK SMILES Cc1cc(-c2ccccc2C(F)(F)F)ccc1C(=O)N[C@@H](CCCN=C(N)N)B1O[C@@H]2CC3CC(C3(C)C)[C@]2(C)O1
REMARK SMILES IDX 21 1 20 2 18 3 19 4 17 6 2 7 3 8 4 9 16 10 15 11 1 12 5 13
REMARK SMILES IDX 6 14 10 15 7 16 9 17 8 18 11 19 12 20 13 21 14 22 22 23
REMARK SMILES IDX 23 24 24 25 25 26 26 27 27 28 28 29 29 34 30 35 41 36 31 37
REMARK SMILES IDX 39 38 32 39 35 40 33 41 34 42 36 43 40 44 37 45 38 46
REMARK H PARENT 20 5 27 30 27 31 28 32 28 33
ROOT
ATOM      1  C   UNL     1      -1.190   1.574  -0.473  1.00  0.00     0.114 C 
ENDROOT
BRANCH   1   2
ATOM      2  N   UNL     1       0.146   1.176  -0.441  1.00  0.00    -0.351 N 
ATOM      3  C   UNL     1       1.353   1.770  -0.827  1.00  0.00     0.251 C 
ATOM      4  O   UNL     1       1.518   2.877  -1.341  1.00  0.00    -0.269 OA
ATOM      5  H   UNL     1       0.299   0.169  -0.007  1.00  0.00     0.163 HD
BRANCH   3   6
ATOM      6  C   UNL     1       2.599   0.987  -0.600  1.00  0.00     0.042 A 
ATOM      7  C   UNL     1       2.994   0.684   0.692  1.00  0.00    -0.038 A 
ATOM      8  C   UNL     1       4.130  -0.031   0.901  1.00  0.00     0.013 A 
ATOM      9  C   UNL     1       4.947  -0.493  -0.143  1.00  0.00    -0.017 A 
ATOM     10  C   UNL     1       3.374   0.553  -1.659  1.00  0.00     0.015 A 
ATOM     11  C   UNL     1       4.534  -0.180  -1.407  1.00  0.00     0.009 A 
ATOM     12  C   UNL     1       2.136   1.164   1.822  1.00  0.00     0.045 C 
BRANCH   9  13
ATOM     13  C   UNL     1       6.142  -1.191   0.241  1.00  0.00    -0.006 A 
ATOM     14  C   UNL     1       7.074  -0.453   0.980  1.00  0.00     0.009 A 
ATOM     15  C   UNL     1       6.410  -2.495  -0.067  1.00  0.00     0.063 A 
ATOM     16  C   UNL     1       8.262  -0.973   1.417  1.00  0.00     0.001 A 
ATOM     17  C   UNL     1       7.624  -3.012   0.385  1.00  0.00     0.014 A 
ATOM     18  C   UNL     1       8.531  -2.285   1.105  1.00  0.00     0.001 A 
BRANCH  15  19
ATOM     19  C   UNL     1       5.498  -3.385  -0.828  1.00  0.00     0.417 C 
ATOM     20  F   UNL     1       6.072  -4.663  -0.884  1.00  0.00    -0.166 F 
ATOM     21  F   UNL     1       4.246  -3.466  -0.272  1.00  0.00    -0.166 F 
ATOM     22  F   UNL     1       5.389  -3.007  -2.173  1.00  0.00    -0.166 F 
ENDBRANCH  15  19
ENDBRANCH   9  13
ENDBRANCH   3   6
ENDBRANCH   1   2
BRANCH   1  23
ATOM     23  C   UNL     1      -1.785   2.658  -1.231  1.00  0.00     0.024 C 
BRANCH  23  24
ATOM     24  C   UNL     1      -1.400   4.048  -0.931  1.00  0.00     0.025 C 
BRANCH  24  25
ATOM     25  C   UNL     1      -1.798   4.362   0.528  1.00  0.00     0.146 C 
BRANCH  25  26
ATOM     26  N   UNL     1      -1.475   5.725   0.894  1.00  0.00    -0.254 NA
ATOM     27  C   UNL     1      -1.984   6.751   0.358  1.00  0.00     0.185 C 
ATOM     28  N   UNL     1      -1.545   8.030   0.851  1.00  0.00    -0.370 N 
ATOM     29  N   UNL     1      -2.943   6.783  -0.676  1.00  0.00    -0.370 N 
ATOM     30  H   UNL     1      -2.241   8.757   1.072  1.00  0.00     0.159 HD
ATOM     31  H   UNL     1      -0.528   8.249   0.996  1.00  0.00     0.159 HD
ATOM     32  H   UNL     1      -3.835   6.226  -0.550  1.00  0.00     0.159 HD
ATOM     33  H   UNL     1      -2.786   7.334  -1.534  1.00  0.00     0.159 HD
ENDBRANCH  25  26
ENDBRANCH  24  25
ENDBRANCH  23  24
ENDBRANCH   1  23
BRANCH   1  34
ATOM     34  B   UNL     1      -2.081   0.244  -0.645  1.00  0.00     0.481 B 
ATOM     35  O   UNL     1      -1.613  -0.993  -1.261  1.00  0.00    -0.404 OA
ATOM     36  O   UNL     1      -3.142  -0.109   0.238  1.00  0.00    -0.402 OA
ATOM     37  C   UNL     1      -2.078  -2.035  -0.475  1.00  0.00     0.132 C 
ATOM     38  C   UNL     1      -3.076  -1.499   0.478  1.00  0.00     0.079 C 
ATOM     39  C   UNL     1      -2.606  -3.083  -1.420  1.00  0.00     0.037 C 
ATOM     40  C   UNL     1      -4.469  -1.990   0.292  1.00  0.00     0.028 C 
ATOM     41  C   UNL     1      -4.099  -3.173  -1.373  1.00  0.00    -0.002 C 
ATOM     42  C   UNL     1      -4.739  -1.806  -1.210  1.00  0.00     0.011 C 
ATOM     43  C   UNL     1      -4.625  -3.444   0.011  1.00  0.00    -0.027 C 
ATOM     44  C   UNL     1      -2.579  -1.641   1.902  1.00  0.00     0.044 C 
ATOM     45  C   UNL     1      -6.123  -3.740  -0.094  1.00  0.00     0.012 C 
ATOM     46  C   UNL     1      -3.925  -4.436   0.833  1.00  0.00     0.012 C 
ENDBRANCH   1  34
TORSDOF 9
