REMARK SMILES CC(C)(Cc1ccc(C(=O)Oc2ccc(C(=N)N)cc2F)s1)C(=O)N[C@H]1CC=CC[C@H]1C(=O)O
REMARK SMILES IDX 4 1 2 2 1 3 3 4 23 5 24 6 25 7 26 9 27 10 31 11 28 12 30 13
REMARK SMILES IDX 29 14 32 15 33 16 34 17 5 19 6 20 22 21 7 22 8 23 9 24 10 25
REMARK SMILES IDX 11 26 12 27 13 28 20 29 14 30 19 31 15 32 21 33 16 34 17 35
REMARK SMILES IDX 18 36
REMARK H PARENT 25 8 34 18 17 37 18 38 18 39
ROOT
ATOM      1  C   UNL     1       1.334   0.092   0.215  1.00  0.00     0.063 C 
ENDROOT
BRANCH   1   2
ATOM      2  C   UNL     1       1.997  -0.952   1.150  1.00  0.00     0.048 C 
ATOM      3  C   UNL     1       2.278  -0.391   2.556  1.00  0.00     0.022 C 
ATOM      4  C   UNL     1       1.119  -2.211   1.296  1.00  0.00     0.022 C 
BRANCH   2   5
ATOM      5  C   UNL     1       3.332  -1.369   0.495  1.00  0.00     0.226 C 
ATOM      6  O   UNL     1       3.519  -2.484   0.016  1.00  0.00    -0.274 OA
ATOM      7  N   UNL     1       4.301  -0.389   0.453  1.00  0.00    -0.352 N 
ATOM      8  H   UNL     1       4.057   0.569   0.685  1.00  0.00     0.163 HD
BRANCH   7   9
ATOM      9  C   UNL     1       5.571  -0.573  -0.247  1.00  0.00     0.100 C 
ATOM     10  C   UNL     1       5.401  -0.466  -1.777  1.00  0.00     0.052 C 
ATOM     11  C   UNL     1       6.670   0.378   0.266  1.00  0.00     0.125 C 
ATOM     12  C   UNL     1       6.716  -0.421  -2.503  1.00  0.00    -0.029 C 
ATOM     13  C   UNL     1       8.009   0.013  -0.403  1.00  0.00     0.044 C 
ATOM     14  C   UNL     1       7.890  -0.231  -1.882  1.00  0.00    -0.030 C 
BRANCH  11  15
ATOM     15  C   UNL     1       6.357   1.847   0.037  1.00  0.00     0.308 C 
ATOM     16  O   UNL     1       7.124   2.717  -0.342  1.00  0.00    -0.252 OA
BRANCH  15  17
ATOM     17  O   UNL     1       5.100   2.197   0.391  1.00  0.00    -0.481 OA
ATOM     18  H   UNL     1       5.097   3.168   0.227  1.00  0.00     0.296 HD
ENDBRANCH  15  17
ENDBRANCH  11  15
ENDBRANCH   7   9
ENDBRANCH   2   5
ENDBRANCH   1   2
BRANCH   1  19
ATOM     19  C   UNL     1      -0.022   0.584   0.649  1.00  0.00     0.006 A 
ATOM     20  C   UNL     1      -0.323   1.566   1.570  1.00  0.00     0.016 A 
ATOM     21  S   UNL     1      -1.442  -0.045  -0.073  1.00  0.00    -0.133 S 
ATOM     22  C   UNL     1      -1.726   1.769   1.704  1.00  0.00     0.028 A 
ATOM     23  C   UNL     1      -2.467   0.953   0.868  1.00  0.00     0.113 A 
BRANCH  23  24
ATOM     24  C   UNL     1      -3.918   0.917   0.763  1.00  0.00     0.353 C 
ATOM     25  O   UNL     1      -4.673   1.614   1.435  1.00  0.00    -0.245 OA
BRANCH  24  26
ATOM     26  O   UNL     1      -4.331  -0.027  -0.175  1.00  0.00    -0.419 OA
BRANCH  26  27
ATOM     27  C   UNL     1      -5.711  -0.030  -0.390  1.00  0.00     0.166 A 
ATOM     28  C   UNL     1      -6.455  -1.113   0.073  1.00  0.00     0.051 A 
ATOM     29  C   UNL     1      -6.316   0.996  -1.115  1.00  0.00     0.166 A 
ATOM     30  C   UNL     1      -7.830  -1.142  -0.169  1.00  0.00     0.016 A 
ATOM     31  C   UNL     1      -7.684   0.974  -1.358  1.00  0.00     0.055 A 
ATOM     32  C   UNL     1      -8.444  -0.096  -0.876  1.00  0.00     0.019 A 
ATOM     33  F   UNL     1      -5.578   2.005  -1.599  1.00  0.00    -0.203 F 
BRANCH  32  34
ATOM     34  C   UNL     1      -9.907  -0.149  -1.132  1.00  0.00     0.122 C 
ATOM     35  N   UNL     1     -10.651   0.910  -1.164  1.00  0.00    -0.284 NA
ATOM     36  N   UNL     1     -10.522  -1.344  -1.354  1.00  0.00    -0.384 N 
ATOM     37  H   UNL     1     -10.117   1.754  -0.938  1.00  0.00     0.189 HD
ATOM     38  H   UNL     1     -11.463  -1.201  -1.712  1.00  0.00     0.158 HD
ATOM     39  H   UNL     1     -10.001  -2.016  -1.903  1.00  0.00     0.158 HD
ENDBRANCH  32  34
ENDBRANCH  26  27
ENDBRANCH  24  26
ENDBRANCH  23  24
ENDBRANCH   1  19
TORSDOF 10
