REMARK SMILES Cc1cnc(NCCc2ccccc2)c(=O)n1CC(=O)NCc1cc(Cl)ccc1CN
REMARK SMILES IDX 19 1 20 2 21 3 18 5 17 6 2 7 3 8 4 9 15 10 5 11 16 12 6 13
REMARK SMILES IDX 1 14 7 16 8 17 9 18 10 19 14 20 11 21 13 22 12 23 22 24
REMARK SMILES IDX 23 25 24 26 29 27 25 28 28 29 27 30 26 31 30 32 31 33
REMARK H PARENT 21 4 6 15 31 34 31 35
ROOT
ATOM      1  C   UNL     1      -1.587  -2.539  -2.922  1.00  0.00     0.240 C 
ATOM      2  O   UNL     1      -1.741  -2.381  -4.130  1.00  0.00    -0.273 OA
ATOM      3  N   UNL     1      -2.374  -1.929  -1.968  1.00  0.00    -0.350 N 
ATOM      4  H   UNL     1      -2.018  -1.913  -1.014  1.00  0.00     0.163 HD
ENDROOT
BRANCH   1   5
ATOM      5  C   UNL     1      -0.465  -3.401  -2.343  1.00  0.00     0.225 C 
BRANCH   5   6
ATOM      6  N   UNL     1       0.664  -2.568  -1.940  1.00  0.00    -0.299 N 
ATOM      7  C   UNL     1       1.735  -2.285  -2.781  1.00  0.00     0.037 C 
ATOM      8  C   UNL     1       2.720  -1.480  -2.343  1.00  0.00     0.135 C 
ATOM      9  N   UNL     1       2.799  -0.898  -1.106  1.00  0.00    -0.232 NA
ATOM     10  C   UNL     1       0.597  -1.969  -0.687  1.00  0.00     0.293 C 
ATOM     11  C   UNL     1       1.819  -1.115  -0.276  1.00  0.00     0.192 C 
ATOM     12  O   UNL     1      -0.356  -2.036   0.087  1.00  0.00    -0.265 OA
ATOM     13  N   UNL     1       1.801  -0.596   1.007  1.00  0.00    -0.365 N 
ATOM     14  C   UNL     1       1.784  -2.866  -4.167  1.00  0.00     0.066 C 
ATOM     15  H   UNL     1       0.895  -0.675   1.465  1.00  0.00     0.162 HD
BRANCH  13  16
ATOM     16  C   UNL     1       2.618   0.542   1.388  1.00  0.00     0.119 C 
BRANCH  16  17
ATOM     17  C   UNL     1       2.574   0.736   2.906  1.00  0.00     0.056 C 
BRANCH  17  18
ATOM     18  C   UNL     1       3.377   1.934   3.347  1.00  0.00    -0.046 A 
ATOM     19  C   UNL     1       2.760   3.180   3.522  1.00  0.00     0.004 A 
ATOM     20  C   UNL     1       4.758   1.822   3.559  1.00  0.00     0.004 A 
ATOM     21  C   UNL     1       3.509   4.291   3.911  1.00  0.00     0.000 A 
ATOM     22  C   UNL     1       5.505   2.935   3.948  1.00  0.00     0.000 A 
ATOM     23  C   UNL     1       4.881   4.168   4.124  1.00  0.00     0.000 A 
ENDBRANCH  17  18
ENDBRANCH  16  17
ENDBRANCH  13  16
ENDBRANCH   5   6
ENDBRANCH   1   5
BRANCH   3  24
ATOM     24  C   UNL     1      -3.326  -0.912  -2.345  1.00  0.00     0.152 C 
BRANCH  24  25
ATOM     25  C   UNL     1      -4.124  -0.462  -1.146  1.00  0.00    -0.023 A 
ATOM     26  C   UNL     1      -5.341  -1.113  -0.870  1.00  0.00     0.026 A 
ATOM     27  C   UNL     1      -3.669   0.551  -0.269  1.00  0.00    -0.029 A 
ATOM     28  C   UNL     1      -6.107  -0.749   0.235  1.00  0.00     0.041 A 
ATOM     29  C   UNL     1      -4.466   0.908   0.836  1.00  0.00     0.007 A 
ATOM     30  C   UNL     1      -5.677   0.261   1.087  1.00  0.00     0.021 A 
ATOM     31  Cl  UNL     1      -7.595  -1.556   0.548  1.00  0.00    -0.084 Cl
BRANCH  27  32
ATOM     32  C   UNL     1      -2.369   1.290  -0.492  1.00  0.00     0.113 C 
BRANCH  32  33
ATOM     33  N   UNL     1      -2.524   2.321  -1.507  1.00  0.00    -0.326 NA
ATOM     34  H   UNL     1      -1.659   2.854  -1.584  1.00  0.00     0.119 HD
ATOM     35  H   UNL     1      -3.244   2.979  -1.212  1.00  0.00     0.119 HD
ENDBRANCH  32  33
ENDBRANCH  27  32
ENDBRANCH  24  25
ENDBRANCH   3  24
TORSDOF 9
