REMARK SMILES CCC(Cc1ccc(C(=O)Oc2ccc(C(=N)N)cc2)o1)C(=O)O
REMARK SMILES IDX 5 1 6 2 7 3 8 4 21 5 4 6 3 7 2 8 1 9 22 10 23 11 24 12 9 14
REMARK SMILES IDX 10 15 11 16 12 17 13 18 20 19 14 20 19 21 15 22 16 23 17 24
REMARK SMILES IDX 18 25
REMARK H PARENT 24 13 17 26 18 27 18 28
ROOT
ATOM      1  C   UNL     1      -2.430   1.432   0.338  1.00  0.00     0.105 A 
ATOM      2  C   UNL     1      -2.424   2.649  -0.307  1.00  0.00     0.046 A 
ATOM      3  C   UNL     1      -1.082   2.891  -0.682  1.00  0.00     0.058 A 
ATOM      4  C   UNL     1      -0.340   1.808  -0.245  1.00  0.00     0.212 A 
ATOM      5  O   UNL     1      -1.171   0.915   0.380  1.00  0.00    -0.454 OA
ENDROOT
BRANCH   1   6
ATOM      6  C   UNL     1      -3.504   0.612   0.964  1.00  0.00     0.090 C 
BRANCH   6   7
ATOM      7  C   UNL     1      -3.989  -0.506   0.031  1.00  0.00     0.106 C 
BRANCH   7   8
ATOM      8  C   UNL     1      -4.799  -1.587   0.767  1.00  0.00     0.012 C 
ATOM      9  C   UNL     1      -6.016  -1.071   1.524  1.00  0.00     0.005 C 
ENDBRANCH   7   8
BRANCH   7  10
ATOM     10  C   UNL     1      -4.802   0.064  -1.111  1.00  0.00     0.306 C 
ATOM     11  O   UNL     1      -5.411   1.120  -1.128  1.00  0.00    -0.252 OA
BRANCH  10  12
ATOM     12  O   UNL     1      -4.825  -0.754  -2.183  1.00  0.00    -0.481 OA
ATOM     13  H   UNL     1      -5.379  -0.278  -2.837  1.00  0.00     0.296 HD
ENDBRANCH  10  12
ENDBRANCH   7  10
ENDBRANCH   6   7
ENDBRANCH   1   6
BRANCH   4  14
ATOM     14  C   UNL     1       1.074   1.530  -0.359  1.00  0.00     0.379 C 
ATOM     15  O   UNL     1       1.890   2.269  -0.901  1.00  0.00    -0.242 OA
BRANCH  14  16
ATOM     16  O   UNL     1       1.359   0.304   0.237  1.00  0.00    -0.421 OA
BRANCH  16  17
ATOM     17  C   UNL     1       2.709  -0.045   0.170  1.00  0.00     0.131 A 
ATOM     18  C   UNL     1       3.190  -0.714  -0.954  1.00  0.00     0.048 A 
ATOM     19  C   UNL     1       3.529   0.224   1.265  1.00  0.00     0.048 A 
ATOM     20  C   UNL     1       4.533  -1.091  -0.997  1.00  0.00     0.016 A 
ATOM     21  C   UNL     1       4.871  -0.156   1.221  1.00  0.00     0.016 A 
ATOM     22  C   UNL     1       5.373  -0.814   0.090  1.00  0.00     0.016 A 
BRANCH  22  23
ATOM     23  C   UNL     1       6.804  -1.211   0.025  1.00  0.00     0.122 C 
ATOM     24  N   UNL     1       7.467  -1.615   1.062  1.00  0.00    -0.284 NA
ATOM     25  N   UNL     1       7.478  -1.150  -1.157  1.00  0.00    -0.384 N 
ATOM     26  H   UNL     1       6.864  -1.671   1.888  1.00  0.00     0.189 HD
ATOM     27  H   UNL     1       7.243  -0.368  -1.757  1.00  0.00     0.158 HD
ATOM     28  H   UNL     1       8.479  -1.233  -1.004  1.00  0.00     0.158 HD
ENDBRANCH  22  23
ENDBRANCH  16  17
ENDBRANCH  14  16
ENDBRANCH   4  14
TORSDOF 9
