REMARK SMILES c1ccc(COc2ccc(CNc3ccncc3)cc2)cc1
REMARK SMILES IDX 7 1 8 2 9 3 10 4 19 5 20 6 6 7 5 8 4 9 1 10 2 11 22 12 3 13
REMARK SMILES IDX 21 14 11 15 12 16 13 18 14 19 18 20 15 21 17 22 16 23
REMARK H PARENT 12 17
ROOT
ATOM      1  C   UNL     1      -1.268   0.223   0.468  1.00  0.00     0.119 A 
ATOM      2  C   UNL     1      -0.521  -0.337   1.507  1.00  0.00     0.047 A 
ATOM      3  C   UNL     1       0.853  -0.103   1.608  1.00  0.00     0.009 A 
ATOM      4  C   UNL     1       1.502   0.704   0.666  1.00  0.00    -0.029 A 
ATOM      5  C   UNL     1       0.749   1.258  -0.380  1.00  0.00     0.009 A 
ATOM      6  C   UNL     1      -0.626   1.021  -0.478  1.00  0.00     0.047 A 
ENDROOT
BRANCH   1   7
ATOM      7  O   UNL     1      -2.599  -0.089   0.493  1.00  0.00    -0.489 OA
BRANCH   7   8
ATOM      8  C   UNL     1      -3.413   0.456  -0.542  1.00  0.00     0.265 C 
BRANCH   8   9
ATOM      9  C   UNL     1      -4.831  -0.006  -0.316  1.00  0.00    -0.011 A 
ATOM     10  C   UNL     1      -7.458  -0.880   0.135  1.00  0.00     0.000 A 
ATOM     11  C   UNL     1      -6.993   0.278   0.756  1.00  0.00     0.000 A 
ATOM     12  C   UNL     1      -6.615  -1.609  -0.701  1.00  0.00     0.000 A 
ATOM     13  C   UNL     1      -5.684   0.711   0.535  1.00  0.00     0.007 A 
ATOM     14  C   UNL     1      -5.306  -1.178  -0.922  1.00  0.00     0.007 A 
ENDBRANCH   8   9
ENDBRANCH   7   8
ENDBRANCH   1   7
BRANCH   4  15
ATOM     15  C   UNL     1       2.989   0.957   0.755  1.00  0.00     0.148 C 
BRANCH  15  16
ATOM     16  N   UNL     1       3.661   0.234  -0.316  1.00  0.00    -0.381 N 
ATOM     17  H   UNL     1       3.248  -0.682  -0.477  1.00  0.00     0.160 HD
BRANCH  16  18
ATOM     18  C   UNL     1       5.058   0.202  -0.362  1.00  0.00     0.037 A 
ATOM     19  C   UNL     1       5.679  -0.758  -1.166  1.00  0.00     0.046 A 
ATOM     20  C   UNL     1       5.876   1.160   0.236  1.00  0.00     0.046 A 
ATOM     21  C   UNL     1       7.062  -0.763  -1.277  1.00  0.00     0.113 A 
ATOM     22  C   UNL     1       7.252   1.076   0.068  1.00  0.00     0.113 A 
ATOM     23  N   UNL     1       7.867   0.129  -0.667  1.00  0.00    -0.265 NA
ENDBRANCH  16  18
ENDBRANCH  15  16
ENDBRANCH   4  15
TORSDOF 6
