REMARK SMILES Cc1nc(N)ccc1CNC(=O)Cn1c(C)ccc(NS(=O)(=O)Cc2ccc(Cl)cc2)c1=O
REMARK SMILES IDX 14 1 15 2 16 3 17 4 18 5 19 6 32 7 33 8 13 9 11 10 10 11
REMARK SMILES IDX 12 12 9 14 8 15 2 16 3 17 4 18 7 19 6 20 1 21 5 22 20 25
REMARK SMILES IDX 21 27 22 28 23 29 24 30 25 31 26 32 31 33 27 34 30 35 28 36
REMARK SMILES IDX 29 37
REMARK H PARENT 10 13 5 23 5 24 20 26
ROOT
ATOM      1  N   UNL     1      -0.596  -1.550  -2.905  1.00  0.00    -0.302 N 
ATOM      2  C   UNL     1      -1.500  -2.448  -2.316  1.00  0.00     0.019 C 
ATOM      3  C   UNL     1      -2.952  -2.428  -2.717  1.00  0.00     0.064 C 
ATOM      4  C   UNL     1      -1.068  -3.321  -1.386  1.00  0.00     0.024 C 
ATOM      5  C   UNL     1       0.319  -3.382  -0.995  1.00  0.00     0.034 C 
ATOM      6  C   UNL     1       1.187  -2.522  -1.529  1.00  0.00     0.114 C 
ATOM      7  C   UNL     1       0.757  -1.519  -2.547  1.00  0.00     0.275 C 
ATOM      8  O   UNL     1       1.587  -0.718  -2.973  1.00  0.00    -0.267 OA
ENDROOT
BRANCH   1   9
ATOM      9  C   UNL     1      -1.022  -0.586  -3.931  1.00  0.00     0.225 C 
BRANCH   9  10
ATOM     10  C   UNL     1      -1.564   0.740  -3.382  1.00  0.00     0.240 C 
ATOM     11  N   UNL     1      -1.468   0.912  -2.021  1.00  0.00    -0.350 N 
ATOM     12  O   UNL     1      -2.043   1.597  -4.122  1.00  0.00    -0.273 OA
ATOM     13  H   UNL     1      -1.183   0.124  -1.455  1.00  0.00     0.163 HD
BRANCH  11  14
ATOM     14  C   UNL     1      -1.996   2.090  -1.377  1.00  0.00     0.153 C 
BRANCH  14  15
ATOM     15  C   UNL     1      -1.750   2.046   0.104  1.00  0.00    -0.007 A 
ATOM     16  C   UNL     1      -2.595   1.371   0.992  1.00  0.00     0.045 A 
ATOM     17  N   UNL     1      -2.351   1.301   2.326  1.00  0.00    -0.236 NA
ATOM     18  C   UNL     1      -1.262   1.916   2.811  1.00  0.00     0.123 A 
ATOM     19  C   UNL     1      -0.609   2.654   0.637  1.00  0.00     0.011 A 
ATOM     20  C   UNL     1      -0.365   2.593   2.005  1.00  0.00     0.047 A 
ATOM     21  C   UNL     1      -3.837   0.666   0.527  1.00  0.00     0.067 C 
BRANCH  18  22
ATOM     22  N   UNL     1      -1.042   1.799   4.180  1.00  0.00    -0.384 N 
ATOM     23  H   UNL     1      -1.849   1.317   4.569  1.00  0.00     0.158 HD
ATOM     24  H   UNL     1      -0.897   2.703   4.613  1.00  0.00     0.158 HD
ENDBRANCH  18  22
ENDBRANCH  14  15
ENDBRANCH  11  14
ENDBRANCH   9  10
ENDBRANCH   1   9
BRANCH   6  25
ATOM     25  N   UNL     1       2.565  -2.629  -1.188  1.00  0.00    -0.278 N 
ATOM     26  H   UNL     1       3.168  -2.155  -1.872  1.00  0.00     0.180 HD
BRANCH  25  27
ATOM     27  S   UNL     1       2.988  -2.088   0.365  1.00  0.00     0.237 S 
ATOM     28  O   UNL     1       4.435  -2.025   0.348  1.00  0.00    -0.206 OA
ATOM     29  O   UNL     1       2.280  -2.905   1.329  1.00  0.00    -0.206 OA
BRANCH  27  30
ATOM     30  C   UNL     1       2.337  -0.403   0.405  1.00  0.00     0.195 C 
BRANCH  30  31
ATOM     31  C   UNL     1       2.774   0.263   1.685  1.00  0.00    -0.031 A 
ATOM     32  C   UNL     1       3.929   1.060   1.716  1.00  0.00     0.006 A 
ATOM     33  C   UNL     1       2.035   0.092   2.864  1.00  0.00     0.006 A 
ATOM     34  C   UNL     1       4.327   1.683   2.901  1.00  0.00     0.021 A 
ATOM     35  C   UNL     1       2.433   0.718   4.048  1.00  0.00     0.021 A 
ATOM     36  C   UNL     1       3.575   1.513   4.061  1.00  0.00     0.041 A 
ATOM     37  Cl  UNL     1       4.057   2.295   5.516  1.00  0.00    -0.084 Cl
ENDBRANCH  30  31
ENDBRANCH  27  30
ENDBRANCH  25  27
ENDBRANCH   6  25
TORSDOF 9
