REMARK SMILES c1ccc(COc2ccc(CCNc3ccncc3)cc2)cc1
REMARK SMILES IDX 7 1 8 2 9 3 10 4 20 5 21 6 6 7 5 8 4 9 1 10 2 11 23 12 3 13
REMARK SMILES IDX 22 14 11 15 12 16 13 17 14 19 15 20 19 21 16 22 18 23 17 24
REMARK H PARENT 13 18
ROOT
ATOM      1  C   UNL     1      -1.254  -0.495   0.164  1.00  0.00     0.119 A 
ATOM      2  C   UNL     1      -0.293   0.321   0.762  1.00  0.00     0.047 A 
ATOM      3  C   UNL     1       1.026  -0.113   0.902  1.00  0.00     0.007 A 
ATOM      4  C   UNL     1       1.405  -1.379   0.441  1.00  0.00    -0.046 A 
ATOM      5  C   UNL     1       0.440  -2.196  -0.161  1.00  0.00     0.007 A 
ATOM      6  C   UNL     1      -0.882  -1.758  -0.298  1.00  0.00     0.047 A 
ENDROOT
BRANCH   1   7
ATOM      7  O   UNL     1      -2.504   0.055   0.091  1.00  0.00    -0.489 OA
BRANCH   7   8
ATOM      8  C   UNL     1      -3.533  -0.740  -0.494  1.00  0.00     0.265 C 
BRANCH   8   9
ATOM      9  C   UNL     1      -4.836   0.023  -0.433  1.00  0.00    -0.011 A 
ATOM     10  C   UNL     1      -7.278   1.399  -0.301  1.00  0.00     0.000 A 
ATOM     11  C   UNL     1      -6.543   1.173   0.860  1.00  0.00     0.000 A 
ATOM     12  C   UNL     1      -6.801   0.941  -1.528  1.00  0.00     0.000 A 
ATOM     13  C   UNL     1      -5.329   0.487   0.796  1.00  0.00     0.007 A 
ATOM     14  C   UNL     1      -5.587   0.254  -1.594  1.00  0.00     0.007 A 
ENDBRANCH   8   9
ENDBRANCH   7   8
ENDBRANCH   1   7
BRANCH   4  15
ATOM     15  C   UNL     1       2.838  -1.842   0.568  1.00  0.00     0.056 C 
BRANCH  15  16
ATOM     16  C   UNL     1       3.640  -1.707  -0.734  1.00  0.00     0.117 C 
BRANCH  16  17
ATOM     17  N   UNL     1       3.763  -0.320  -1.189  1.00  0.00    -0.385 N 
ATOM     18  H   UNL     1       2.856   0.071  -1.441  1.00  0.00     0.160 HD
BRANCH  17  19
ATOM     19  C   UNL     1       4.561   0.603  -0.509  1.00  0.00     0.037 A 
ATOM     20  C   UNL     1       5.665   0.253   0.268  1.00  0.00     0.046 A 
ATOM     21  C   UNL     1       4.333   1.966  -0.716  1.00  0.00     0.046 A 
ATOM     22  C   UNL     1       6.430   1.255   0.850  1.00  0.00     0.113 A 
ATOM     23  C   UNL     1       5.152   2.898  -0.095  1.00  0.00     0.113 A 
ATOM     24  N   UNL     1       6.192   2.572   0.697  1.00  0.00    -0.265 NA
ENDBRANCH  17  19
ENDBRANCH  16  17
ENDBRANCH  15  16
ENDBRANCH   4  15
TORSDOF 7
