REMARK SMILES NCc1ccc(CNC(=O)CC(=O)NCc2ccc(CNC(=O)CC(=O)NCc3ccc(CN)cc3)cc2)cc1
REMARK SMILES IDX 16 1 17 2 18 3 19 4 37 5 38 6 15 7 14 8 12 9 13 10 11 12
REMARK SMILES IDX 9 13 8 14 10 15 7 17 6 18 3 19 4 20 40 21 5 22 39 23 2 24
REMARK SMILES IDX 1 25 20 28 21 29 22 30 23 31 24 33 25 34 26 35 27 36 28 38
REMARK SMILES IDX 29 39 30 40 36 41 31 42 35 43 32 44 33 45 34 46
REMARK H PARENT 14 11 8 16 1 26 1 27 21 32 27 37 34 47 34 48
ROOT
ATOM      1  C   UNL     1       1.478  -2.844   2.260  1.00  0.00    -0.029 A 
ATOM      2  C   UNL     1       0.964  -1.587   1.923  1.00  0.00     0.006 A 
ATOM      3  C   UNL     1       0.496  -1.333   0.630  1.00  0.00     0.006 A 
ATOM      4  C   UNL     1       0.526  -2.331  -0.354  1.00  0.00    -0.029 A 
ATOM      5  C   UNL     1       1.059  -3.584  -0.016  1.00  0.00     0.006 A 
ATOM      6  C   UNL     1       1.529  -3.838   1.275  1.00  0.00     0.006 A 
ENDROOT
BRANCH   1   7
ATOM      7  C   UNL     1       2.021  -3.107   3.639  1.00  0.00     0.151 C 
BRANCH   7   8
ATOM      8  N   UNL     1       3.433  -2.808   3.698  1.00  0.00    -0.352 N 
ATOM      9  C   UNL     1       4.162  -3.140   4.819  1.00  0.00     0.229 C 
ATOM     10  O   UNL     1       3.706  -3.838   5.724  1.00  0.00    -0.275 OA
ATOM     11  H   UNL     1       3.751  -2.036   3.122  1.00  0.00     0.163 HD
BRANCH   9  12
ATOM     12  C   UNL     1       5.607  -2.707   4.810  1.00  0.00     0.199 C 
BRANCH  12  13
ATOM     13  C   UNL     1       5.821  -1.277   4.392  1.00  0.00     0.229 C 
ATOM     14  N   UNL     1       6.797  -1.107   3.432  1.00  0.00    -0.352 N 
ATOM     15  O   UNL     1       5.161  -0.349   4.851  1.00  0.00    -0.275 OA
ATOM     16  H   UNL     1       7.170  -1.923   2.966  1.00  0.00     0.163 HD
BRANCH  14  17
ATOM     17  C   UNL     1       6.946   0.154   2.737  1.00  0.00     0.151 C 
BRANCH  17  18
ATOM     18  C   UNL     1       6.028   0.194   1.543  1.00  0.00    -0.029 A 
ATOM     19  C   UNL     1       4.241   0.124  -0.638  1.00  0.00    -0.034 A 
ATOM     20  C   UNL     1       5.553  -0.350  -0.775  1.00  0.00     0.005 A 
ATOM     21  C   UNL     1       3.838   0.651   0.595  1.00  0.00     0.005 A 
ATOM     22  C   UNL     1       6.437  -0.319   0.306  1.00  0.00     0.006 A 
ATOM     23  C   UNL     1       4.720   0.682   1.675  1.00  0.00     0.006 A 
BRANCH  19  24
ATOM     24  C   UNL     1       3.274   0.042  -1.790  1.00  0.00     0.113 C 
BRANCH  24  25
ATOM     25  N   UNL     1       3.650   0.930  -2.885  1.00  0.00    -0.326 NA
ATOM     26  H   UNL     1       2.895   0.894  -3.573  1.00  0.00     0.119 HD
ATOM     27  H   UNL     1       3.655   1.885  -2.534  1.00  0.00     0.119 HD
ENDBRANCH  24  25
ENDBRANCH  19  24
ENDBRANCH  17  18
ENDBRANCH  14  17
ENDBRANCH  12  13
ENDBRANCH   9  12
ENDBRANCH   7   8
ENDBRANCH   1   7
BRANCH   4  28
ATOM     28  C   UNL     1       0.090  -2.080  -1.778  1.00  0.00     0.151 C 
BRANCH  28  29
ATOM     29  N   UNL     1      -0.871  -1.006  -1.902  1.00  0.00    -0.352 N 
ATOM     30  C   UNL     1      -0.723   0.024  -2.797  1.00  0.00     0.229 C 
ATOM     31  O   UNL     1       0.300   0.197  -3.459  1.00  0.00    -0.275 OA
ATOM     32  H   UNL     1      -1.805  -1.179  -1.529  1.00  0.00     0.163 HD
BRANCH  30  33
ATOM     33  C   UNL     1      -1.857   1.020  -2.850  1.00  0.00     0.199 C 
BRANCH  33  34
ATOM     34  C   UNL     1      -3.246   0.431  -2.820  1.00  0.00     0.229 C 
ATOM     35  O   UNL     1      -3.534  -0.543  -2.128  1.00  0.00    -0.275 OA
ATOM     36  N   UNL     1      -4.158   1.097  -3.607  1.00  0.00    -0.352 N 
ATOM     37  H   UNL     1      -3.906   1.992  -4.004  1.00  0.00     0.163 HD
BRANCH  36  38
ATOM     38  C   UNL     1      -5.565   0.762  -3.598  1.00  0.00     0.151 C 
BRANCH  38  39
ATOM     39  C   UNL     1      -6.336   1.739  -2.750  1.00  0.00    -0.029 A 
ATOM     40  C   UNL     1      -6.981   2.840  -3.329  1.00  0.00     0.006 A 
ATOM     41  C   UNL     1      -6.389   1.577  -1.360  1.00  0.00     0.006 A 
ATOM     42  C   UNL     1      -7.677   3.755  -2.534  1.00  0.00     0.005 A 
ATOM     43  C   UNL     1      -7.084   2.492  -0.566  1.00  0.00     0.005 A 
ATOM     44  C   UNL     1      -7.735   3.591  -1.143  1.00  0.00    -0.034 A 
BRANCH  44  45
ATOM     45  C   UNL     1      -8.483   4.574  -0.280  1.00  0.00     0.113 C 
BRANCH  45  46
ATOM     46  N   UNL     1      -9.627   3.950   0.371  1.00  0.00    -0.326 NA
ATOM     47  H   UNL     1     -10.232   3.546  -0.342  1.00  0.00     0.119 HD
ATOM     48  H   UNL     1     -10.175   4.665   0.845  1.00  0.00     0.119 HD
ENDBRANCH  45  46
ENDBRANCH  44  45
ENDBRANCH  38  39
ENDBRANCH  36  38
ENDBRANCH  33  34
ENDBRANCH  30  33
ENDBRANCH  28  29
ENDBRANCH   4  28
TORSDOF 16
