REMARK SMILES N=C(N)c1ccc(O)c(/C=C/CNC(=O)c2ccc(-c3ccccc3S(N)(=O)=O)cc2)c1
REMARK SMILES IDX 13 1 14 2 15 3 12 5 11 6 10 7 9 8 4 9 5 10 32 11 6 12 7 13
REMARK SMILES IDX 2 14 1 15 3 16 8 20 16 22 17 23 31 24 18 25 30 26 19 27
REMARK SMILES IDX 20 28 21 29 25 30 22 31 24 32 23 33 26 34 28 35 29 36 27 37
REMARK H PARENT 13 4 1 17 3 18 3 19 8 21 27 38 27 39
ROOT
ATOM      1  N   UNL     1       0.507   0.549   1.879  1.00  0.00    -0.349 N 
ATOM      2  C   UNL     1      -0.410  -0.451   2.113  1.00  0.00     0.251 C 
ATOM      3  O   UNL     1      -0.242  -1.358   2.920  1.00  0.00    -0.269 OA
ATOM      4  H   UNL     1       0.402   1.137   1.064  1.00  0.00     0.164 HD
ENDROOT
BRANCH   1   5
ATOM      5  C   UNL     1       1.803   0.561   2.512  1.00  0.00     0.144 C 
BRANCH   5   6
ATOM      6  C   UNL     1       2.806   0.176   1.474  1.00  0.00    -0.005 C 
ATOM      7  C   UNL     1       3.737   1.007   0.980  1.00  0.00     0.009 C 
BRANCH   7   8
ATOM      8  C   UNL     1       4.716   0.601  -0.039  1.00  0.00     0.017 A 
ATOM      9  C   UNL     1       7.059   0.471  -0.695  1.00  0.00     0.017 A 
ATOM     10  C   UNL     1       6.689  -0.097  -1.919  1.00  0.00     0.016 A 
ATOM     11  C   UNL     1       6.073   0.829   0.233  1.00  0.00     0.023 A 
ATOM     12  C   UNL     1       5.341  -0.313  -2.210  1.00  0.00     0.047 A 
ATOM     13  C   UNL     1       4.363   0.038  -1.275  1.00  0.00     0.122 A 
BRANCH   9  14
ATOM     14  C   UNL     1       8.496   0.713  -0.370  1.00  0.00     0.122 C 
ATOM     15  N   UNL     1       8.806   1.586   0.532  1.00  0.00    -0.284 NA
ATOM     16  N   UNL     1       9.480   0.010  -1.006  1.00  0.00    -0.384 N 
ATOM     17  H   UNL     1       9.821   1.659   0.615  1.00  0.00     0.189 HD
ATOM     18  H   UNL     1       9.219  -0.918  -1.322  1.00  0.00     0.158 HD
ATOM     19  H   UNL     1      10.376  -0.005  -0.532  1.00  0.00     0.158 HD
ENDBRANCH   9  14
BRANCH  13  20
ATOM     20  O   UNL     1       3.042  -0.152  -1.584  1.00  0.00    -0.507 OA
ATOM     21  H   UNL     1       2.976  -0.550  -2.466  1.00  0.00     0.293 HD
ENDBRANCH  13  20
ENDBRANCH   7   8
ENDBRANCH   5   6
ENDBRANCH   1   5
BRANCH   2  22
ATOM     22  C   UNL     1      -1.656  -0.409   1.297  1.00  0.00     0.039 A 
ATOM     23  C   UNL     1      -2.336  -1.609   1.062  1.00  0.00     0.014 A 
ATOM     24  C   UNL     1      -2.177   0.786   0.790  1.00  0.00     0.014 A 
ATOM     25  C   UNL     1      -3.517  -1.617   0.314  1.00  0.00     0.009 A 
ATOM     26  C   UNL     1      -3.359   0.774   0.040  1.00  0.00     0.009 A 
ATOM     27  C   UNL     1      -4.049  -0.424  -0.200  1.00  0.00    -0.017 A 
BRANCH  27  28
ATOM     28  C   UNL     1      -5.289  -0.439  -0.987  1.00  0.00     0.002 A 
ATOM     29  C   UNL     1      -5.205  -0.820  -2.342  1.00  0.00     0.010 A 
ATOM     30  C   UNL     1      -6.562  -0.108  -0.480  1.00  0.00     0.090 A 
ATOM     31  C   UNL     1      -6.336  -0.867  -3.160  1.00  0.00     0.001 A 
ATOM     32  C   UNL     1      -7.698  -0.156  -1.306  1.00  0.00     0.022 A 
ATOM     33  C   UNL     1      -7.583  -0.535  -2.642  1.00  0.00     0.001 A 
BRANCH  30  34
ATOM     34  S   UNL     1      -6.802   0.388   1.207  1.00  0.00     0.238 S 
ATOM     35  O   UNL     1      -8.220   0.393   1.495  1.00  0.00    -0.207 OA
ATOM     36  O   UNL     1      -5.972   1.534   1.492  1.00  0.00    -0.207 OA
BRANCH  34  37
ATOM     37  N   UNL     1      -6.201  -0.903   2.093  1.00  0.00    -0.225 NA
ATOM     38  H   UNL     1      -6.939  -1.302   2.672  1.00  0.00     0.137 HD
ATOM     39  H   UNL     1      -5.370  -0.615   2.613  1.00  0.00     0.137 HD
ENDBRANCH  34  37
ENDBRANCH  30  34
ENDBRANCH  27  28
ENDBRANCH   2  22
TORSDOF 9
