REMARK SMILES COC(=O)CC(CCc1ccc(NS(=O)(=O)c2ccccc2)cc1)c1cccc(C(=N)N)c1
REMARK SMILES IDX 7 1 6 2 5 3 3 4 4 5 2 6 1 7 25 8 26 9 33 10 27 11 29 12
REMARK SMILES IDX 28 13 30 14 31 15 32 16 8 20 9 21 10 22 24 23 11 24 23 25
REMARK SMILES IDX 12 26 13 27 14 29 15 30 16 31 17 32 18 33 22 34 19 35 21 36
REMARK SMILES IDX 20 37
REMARK H PARENT 31 17 32 18 32 19 13 28
ROOT
ATOM      1  C   UNL     1      -1.609   1.342   0.122  1.00  0.00     0.014 C 
ENDROOT
BRANCH   1   2
ATOM      2  C   UNL     1      -3.138   1.133   0.014  1.00  0.00     0.030 C 
BRANCH   2   3
ATOM      3  C   UNL     1      -3.899   2.016   1.016  1.00  0.00     0.131 C 
BRANCH   3   4
ATOM      4  C   UNL     1      -3.820   3.475   0.647  1.00  0.00     0.306 C 
ATOM      5  O   UNL     1      -3.143   4.299   1.246  1.00  0.00    -0.252 OA
BRANCH   4   6
ATOM      6  O   UNL     1      -4.597   3.735  -0.440  1.00  0.00    -0.469 OA
ATOM      7  C   UNL     1      -4.578   5.103  -0.852  1.00  0.00     0.282 C 
ENDBRANCH   4   6
ENDBRANCH   3   4
ENDBRANCH   2   3
BRANCH   2   8
ATOM      8  C   UNL     1      -3.540  -0.323   0.213  1.00  0.00    -0.044 A 
ATOM      9  C   UNL     1      -4.257  -0.990  -0.794  1.00  0.00     0.004 A 
ATOM     10  C   UNL     1      -3.215  -1.026   1.384  1.00  0.00     0.016 A 
ATOM     11  C   UNL     1      -4.629  -2.327  -0.641  1.00  0.00     0.001 A 
ATOM     12  C   UNL     1      -3.587  -2.368   1.534  1.00  0.00     0.016 A 
ATOM     13  C   UNL     1      -4.293  -3.020   0.521  1.00  0.00     0.012 A 
BRANCH  12  14
ATOM     14  C   UNL     1      -3.219  -3.093   2.777  1.00  0.00     0.122 C 
ATOM     15  N   UNL     1      -3.356  -2.557   3.949  1.00  0.00    -0.284 NA
ATOM     16  N   UNL     1      -2.722  -4.357   2.725  1.00  0.00    -0.384 N 
ATOM     17  H   UNL     1      -3.763  -1.620   3.879  1.00  0.00     0.189 HD
ATOM     18  H   UNL     1      -2.958  -4.950   1.943  1.00  0.00     0.158 HD
ATOM     19  H   UNL     1      -2.736  -4.819   3.628  1.00  0.00     0.158 HD
ENDBRANCH  12  14
ENDBRANCH   2   8
ENDBRANCH   1   2
BRANCH   1  20
ATOM     20  C   UNL     1      -0.826   0.571  -0.949  1.00  0.00     0.036 C 
BRANCH  20  21
ATOM     21  C   UNL     1       0.656   0.836  -0.845  1.00  0.00    -0.048 A 
ATOM     22  C   UNL     1       1.458   0.051  -0.005  1.00  0.00     0.006 A 
ATOM     23  C   UNL     1       1.244   1.884  -1.566  1.00  0.00     0.006 A 
ATOM     24  C   UNL     1       2.827   0.304   0.103  1.00  0.00     0.027 A 
ATOM     25  C   UNL     1       2.613   2.137  -1.457  1.00  0.00     0.027 A 
ATOM     26  C   UNL     1       3.399   1.350  -0.617  1.00  0.00     0.049 A 
BRANCH  26  27
ATOM     27  N   UNL     1       4.798   1.581  -0.530  1.00  0.00    -0.280 N 
ATOM     28  H   UNL     1       5.106   2.542  -0.390  1.00  0.00     0.180 HD
BRANCH  27  29
ATOM     29  S   UNL     1       5.800   0.788  -1.638  1.00  0.00     0.261 S 
ATOM     30  O   UNL     1       7.098   1.422  -1.522  1.00  0.00    -0.201 OA
ATOM     31  O   UNL     1       5.134   0.699  -2.919  1.00  0.00    -0.201 OA
BRANCH  29  32
ATOM     32  C   UNL     1       5.942  -0.838  -0.943  1.00  0.00     0.087 A 
ATOM     33  C   UNL     1       6.810  -1.052   0.131  1.00  0.00     0.022 A 
ATOM     34  C   UNL     1       5.212  -1.895  -1.495  1.00  0.00     0.022 A 
ATOM     35  C   UNL     1       6.931  -2.333   0.670  1.00  0.00     0.001 A 
ATOM     36  C   UNL     1       5.338  -3.172  -0.950  1.00  0.00     0.001 A 
ATOM     37  C   UNL     1       6.193  -3.390   0.132  1.00  0.00     0.000 A 
ENDBRANCH  29  32
ENDBRANCH  27  29
ENDBRANCH  26  27
ENDBRANCH  20  21
ENDBRANCH   1  20
TORSDOF 11
