REMARK SMILES CC(C)(C)OC(=O)Nc1cccc(-c2cccc(C(=O)N[C@@H](CCCN=C(N)N)B3O[C@@H]4CC5CC(C5(C)C)[C@]4(C)O3)c2)c1
REMARK SMILES IDX 19 1 20 2 21 3 18 5 14 6 15 7 43 8 16 9 17 10 13 11 9 12
REMARK SMILES IDX 10 13 44 14 11 15 12 16 8 17 6 18 7 19 5 21 2 22 1 23 3 24
REMARK SMILES IDX 4 25 22 26 23 27 24 28 25 29 26 30 27 31 28 32 29 33 30 38
REMARK SMILES IDX 31 39 42 40 32 41 40 42 33 43 36 44 34 45 35 46 37 47 41 48
REMARK SMILES IDX 38 49 39 50
REMARK H PARENT 21 4 8 20 28 34 28 35 29 36 29 37
ROOT
ATOM      1  C   UNL     1      -0.567   1.064  -2.482  1.00  0.00     0.251 C 
ATOM      2  O   UNL     1      -1.145   1.774  -3.341  1.00  0.00    -0.269 OA
ATOM      3  N   UNL     1      -1.367   0.171  -1.721  1.00  0.00    -0.351 N 
ATOM      4  H   UNL     1      -0.947  -0.429  -1.008  1.00  0.00     0.163 HD
ENDROOT
BRANCH   1   5
ATOM      5  C   UNL     1       0.875   1.192  -2.313  1.00  0.00     0.040 A 
ATOM      6  C   UNL     1       2.926   0.553  -1.288  1.00  0.00    -0.018 A 
ATOM      7  C   UNL     1       3.600   1.495  -2.059  1.00  0.00     0.009 A 
ATOM      8  C   UNL     1       1.559   0.401  -1.414  1.00  0.00     0.022 A 
ATOM      9  C   UNL     1       2.914   2.291  -2.961  1.00  0.00     0.001 A 
ATOM     10  C   UNL     1       1.529   2.115  -3.070  1.00  0.00     0.014 A 
BRANCH   6  11
ATOM     11  C   UNL     1       3.720  -0.252  -0.361  1.00  0.00    -0.016 A 
ATOM     12  C   UNL     1       5.533  -0.661   1.115  1.00  0.00     0.045 A 
ATOM     13  C   UNL     1       5.065  -1.953   1.352  1.00  0.00     0.026 A 
ATOM     14  C   UNL     1       4.857   0.191   0.256  1.00  0.00     0.035 A 
ATOM     15  C   UNL     1       3.907  -2.415   0.729  1.00  0.00     0.003 A 
ATOM     16  C   UNL     1       3.243  -1.545  -0.130  1.00  0.00     0.009 A 
BRANCH  12  17
ATOM     17  N   UNL     1       6.715  -0.174   1.744  1.00  0.00    -0.291 N 
ATOM     18  C   UNL     1       8.005  -0.337   1.132  1.00  0.00     0.412 C 
ATOM     19  O   UNL     1       8.152  -0.914   0.021  1.00  0.00    -0.224 OA
ATOM     20  H   UNL     1       6.633   0.312   2.670  1.00  0.00     0.173 HD
BRANCH  18  21
ATOM     21  O   UNL     1       9.089   0.164   1.812  1.00  0.00    -0.444 OA
BRANCH  21  22
ATOM     22  C   UNL     1      10.431   0.090   1.354  1.00  0.00     0.106 C 
ATOM     23  C   UNL     1      10.925  -1.307   1.152  1.00  0.00     0.056 C 
ATOM     24  C   UNL     1      11.268   0.732   2.461  1.00  0.00     0.056 C 
ATOM     25  C   UNL     1      10.629   0.878   0.076  1.00  0.00     0.056 C 
ENDBRANCH  21  22
ENDBRANCH  18  21
ENDBRANCH  12  17
ENDBRANCH   6  11
ENDBRANCH   1   5
BRANCH   3  26
ATOM     26  C   UNL     1      -2.814   0.057  -1.908  1.00  0.00     0.114 C 
BRANCH  26  27
ATOM     27  C   UNL     1      -3.211  -1.324  -2.322  1.00  0.00     0.024 C 
BRANCH  27  28
ATOM     28  C   UNL     1      -2.823  -2.372  -1.302  1.00  0.00     0.025 C 
BRANCH  28  29
ATOM     29  C   UNL     1      -3.219  -3.757  -1.718  1.00  0.00     0.146 C 
BRANCH  29  30
ATOM     30  N   UNL     1      -2.858  -4.775  -0.752  1.00  0.00    -0.254 NA
ATOM     31  C   UNL     1      -3.701  -5.495  -0.126  1.00  0.00     0.185 C 
ATOM     32  N   UNL     1      -3.282  -6.492   0.824  1.00  0.00    -0.370 N 
ATOM     33  N   UNL     1      -5.090  -5.302  -0.378  1.00  0.00    -0.370 N 
ATOM     34  H   UNL     1      -3.756  -6.583   1.732  1.00  0.00     0.159 HD
ATOM     35  H   UNL     1      -2.477  -7.149   0.601  1.00  0.00     0.159 HD
ATOM     36  H   UNL     1      -5.552  -4.372  -0.251  1.00  0.00     0.159 HD
ATOM     37  H   UNL     1      -5.686  -6.077  -0.695  1.00  0.00     0.159 HD
ENDBRANCH  29  30
ENDBRANCH  28  29
ENDBRANCH  27  28
ENDBRANCH  26  27
BRANCH  26  38
ATOM     38  B   UNL     1      -3.505   0.537  -0.557  1.00  0.00     0.481 B 
ATOM     39  O   UNL     1      -4.547  -0.185   0.124  1.00  0.00    -0.404 OA
ATOM     40  O   UNL     1      -3.678   1.954  -0.267  1.00  0.00    -0.402 OA
ATOM     41  C   UNL     1      -5.076   0.673   1.077  1.00  0.00     0.132 C 
ATOM     42  C   UNL     1      -4.691   2.073   0.685  1.00  0.00     0.079 C 
ATOM     43  C   UNL     1      -6.558   0.458   1.159  1.00  0.00     0.037 C 
ATOM     44  C   UNL     1      -5.815   2.824   0.057  1.00  0.00     0.028 C 
ATOM     45  C   UNL     1      -7.328   1.439   0.330  1.00  0.00    -0.002 C 
ATOM     46  C   UNL     1      -6.511   1.844  -0.903  1.00  0.00     0.011 C 
ATOM     47  C   UNL     1      -7.102   2.843   0.799  1.00  0.00    -0.027 C 
ATOM     48  C   UNL     1      -4.074   2.777   1.868  1.00  0.00     0.044 C 
ATOM     49  C   UNL     1      -8.065   3.808   0.124  1.00  0.00     0.012 C 
ATOM     50  C   UNL     1      -7.097   3.088   2.270  1.00  0.00     0.012 C 
ENDBRANCH  26  38
ENDBRANCH   3  26
TORSDOF 11
