REMARK SMILES N=C(N)N1CCC(OCCC2CCCCN2C(=O)[C@H](CC(=O)O)NCC2CCCCC2)CC1
REMARK SMILES IDX 11 1 12 2 13 3 14 4 15 5 16 6 10 7 9 8 8 9 7 10 1 11 2 12
REMARK SMILES IDX 3 13 4 14 5 15 33 16 6 17 32 18 17 22 18 23 19 24 20 25
REMARK SMILES IDX 21 26 22 27 23 28 24 30 25 32 26 33 27 34 31 35 28 36 30 37
REMARK SMILES IDX 29 38
REMARK H PARENT 1 19 3 20 3 21 23 29 24 31
ROOT
ATOM      1  C   UNL     1       0.768  -2.258   0.540  1.00  0.00     0.087 C 
ATOM      2  C   UNL     1       0.557  -3.689   1.078  1.00  0.00     0.025 C 
ATOM      3  C   UNL     1      -0.883  -4.199   1.042  1.00  0.00     0.004 C 
ATOM      4  C   UNL     1      -1.767  -3.380   0.122  1.00  0.00     0.022 C 
ATOM      5  C   UNL     1      -1.716  -1.896   0.481  1.00  0.00     0.120 C 
ATOM      6  N   UNL     1      -0.390  -1.404   0.877  1.00  0.00    -0.338 N 
ENDROOT
BRANCH   1   7
ATOM      7  C   UNL     1       1.098  -2.228  -0.973  1.00  0.00     0.053 C 
BRANCH   7   8
ATOM      8  C   UNL     1       1.859  -0.969  -1.383  1.00  0.00     0.162 C 
BRANCH   8   9
ATOM      9  O   UNL     1       3.174  -1.031  -0.832  1.00  0.00    -0.378 OA
BRANCH   9  10
ATOM     10  C   UNL     1       3.844   0.237  -0.794  1.00  0.00     0.121 C 
ATOM     11  N   UNL     1       8.475   1.724  -0.326  1.00  0.00    -0.269 NA
ATOM     12  C   UNL     1       7.670   1.890  -1.316  1.00  0.00     0.188 C 
ATOM     13  N   UNL     1       7.884   2.872  -2.221  1.00  0.00    -0.370 N 
ATOM     14  N   UNL     1       6.572   1.107  -1.560  1.00  0.00    -0.343 N 
ATOM     15  C   UNL     1       5.371   1.672  -2.196  1.00  0.00     0.122 C 
ATOM     16  C   UNL     1       6.340  -0.087  -0.724  1.00  0.00     0.122 C 
ATOM     17  C   UNL     1       4.213   0.684  -2.211  1.00  0.00     0.053 C 
ATOM     18  C   UNL     1       5.075   0.090   0.106  1.00  0.00     0.053 C 
ATOM     19  H   UNL     1       9.198   2.442  -0.341  1.00  0.00     0.191 HD
ATOM     20  H   UNL     1       7.687   2.561  -3.164  1.00  0.00     0.159 HD
ATOM     21  H   UNL     1       8.807   3.282  -2.176  1.00  0.00     0.159 HD
ENDBRANCH   9  10
ENDBRANCH   8   9
ENDBRANCH   7   8
ENDBRANCH   1   7
BRANCH   6  22
ATOM     22  C   UNL     1      -0.147  -0.147   1.428  1.00  0.00     0.240 C 
ATOM     23  O   UNL     1       1.009   0.273   1.576  1.00  0.00    -0.273 OA
BRANCH  22  24
ATOM     24  C   UNL     1      -1.294   0.766   1.942  1.00  0.00     0.155 C 
BRANCH  24  25
ATOM     25  C   UNL     1      -1.549   0.498   3.427  1.00  0.00     0.151 C 
BRANCH  25  26
ATOM     26  C   UNL     1      -2.281  -0.774   3.723  1.00  0.00     0.305 C 
ATOM     27  O   UNL     1      -1.793  -1.888   3.815  1.00  0.00    -0.252 OA
BRANCH  26  28
ATOM     28  O   UNL     1      -3.601  -0.593   3.922  1.00  0.00    -0.481 OA
ATOM     29  H   UNL     1      -3.937  -1.495   4.102  1.00  0.00     0.296 HD
ENDBRANCH  26  28
ENDBRANCH  25  26
ENDBRANCH  24  25
BRANCH  24  30
ATOM     30  N   UNL     1      -2.451   0.815   1.021  1.00  0.00    -0.305 NA
ATOM     31  H   UNL     1      -2.092   1.017   0.087  1.00  0.00     0.123 HD
BRANCH  30  32
ATOM     32  C   UNL     1      -3.431   1.843   1.378  1.00  0.00     0.085 C 
BRANCH  32  33
ATOM     33  C   UNL     1      -4.643   1.863   0.423  1.00  0.00     0.003 C 
ATOM     34  C   UNL     1      -5.470   0.563   0.507  1.00  0.00     0.005 C 
ATOM     35  C   UNL     1      -4.265   2.175  -1.030  1.00  0.00     0.005 C 
ATOM     36  C   UNL     1      -6.327   0.303  -0.736  1.00  0.00     0.000 C 
ATOM     37  C   UNL     1      -5.507   2.391  -1.901  1.00  0.00     0.000 C 
ATOM     38  C   UNL     1      -6.727   1.593  -1.437  1.00  0.00     0.000 C 
ENDBRANCH  32  33
ENDBRANCH  30  32
ENDBRANCH  24  30
ENDBRANCH  22  24
ENDBRANCH   6  22
TORSDOF 12
